<LesHouchesEvents version="1.0">
<!--
  File written by Pythia8::LHAup on 10 Nov 2011 at 11:12:02
-->
<init>
  2212  -2212  9.800000e+02  9.800000e+02  0  0  0  0  3  1
  1.197116e+01  5.188520e-01  1.000000e+00   9999
</init>
<event>
     8  9999  1.000000e+00  1.493822e+02  7.861495e-03  1.248490e-01
        2    -1     0     0   101     0  0.0000000000e+00  0.0000000000e+00  3.8720303494e+02  3.8720303494e+02  0.0000000000e+00 0. 9.
       -1    -1     0     0     0   101  0.0000000000e+00  0.0000000000e+00 -1.0201130806e+02  1.0201130806e+02  0.0000000000e+00 0. 9.
       23     2     1     2     0     0  1.1364646567e+02  4.6332693761e+01 -1.7236742152e+01  1.5308114497e+02  8.9858188243e+01 0. 9.
       24     2     1     2     0     0 -1.1364646567e+02 -4.6332693761e+01  3.0242846903e+02  3.3613319803e+02  8.0376055300e+01 0. 9.
        5     1     3     0   102     0  1.0538462624e+02  6.7335962683e+01 -1.5182068365e+00  1.2516148078e+02  4.8000000000e+00 0. 9.
       -5     1     3     0     0   102  8.2618394312e+00 -2.1003268922e+01 -1.5718535315e+01  2.7919664193e+01  4.8000000000e+00 0. 9.
       -1     1     4     0     0   103 -1.3977472794e+01 -2.8345466655e+01  2.3496441735e+01  3.9383078851e+01  3.3000000000e-01 0. 9.
        2     1     4     0   103     0 -9.9668992876e+01 -1.7987227106e+01  2.7893202730e+02  2.9675011918e+02  3.3000000000e-01 0. 9.
#pdf    2   -1  3.951051e-01  1.040932e-01  1.467057e+02  2.136045e-01  3.260709e-01
</event>
<event>
     8  9999  1.000000e+00  1.160675e+02  7.838947e-03  1.298402e-01
        1    -1     0     0   101     0  0.0000000000e+00  0.0000000000e+00  2.3805375514e+02  2.3805375514e+02  0.0000000000e+00 0. 9.
       -1    -1     0     0     0   101  0.0000000000e+00  0.0000000000e+00 -5.7661074237e+01  5.7661074237e+01  0.0000000000e+00 0. 9.
       23     2     1     2     0     0  4.4465576886e+01  5.3060550243e+01  6.8601100994e+01  1.3299814082e+02  9.0497430268e+01 0. 9.
       23     2     1     2     0     0 -4.4465576886e+01 -5.3060550243e+01  1.1179157991e+02  1.6271668855e+02  9.5847555392e+01 0. 9.
        4     1     3     0   102     0  1.5883646897e+01  5.1248717548e+01  8.4576184856e+01  1.0017036655e+02  1.5000000000e+00 0. 9.
       -4     1     3     0     0   102  2.8581929989e+01  1.8118326953e+00 -1.5975083863e+01  3.2827774278e+01  1.5000000000e+00 0. 9.
        5     1     4     0   103     0  1.0268238335e+01  4.8238712670e+00  7.2904830017e+01  7.3938222133e+01  4.8000000000e+00 0. 9.
       -5     1     4     0     0   103 -5.4733815221e+01 -5.7884421510e+01  3.8886749889e+01  8.8778466415e+01  4.8000000000e+00 0. 9.
#pdf    1   -1  2.429120e-01  5.883783e-02  1.139403e+02  1.818604e-01  3.911137e-01
</event>
<event>
     8  9999  1.000000e+00  8.619769e+01  7.812526e-03  1.362633e-01
        2    -1     0     0   101     0  0.0000000000e+00  0.0000000000e+00  1.0026257099e+02  1.0026257099e+02  0.0000000000e+00 0. 9.
       -2    -1     0     0     0   101  0.0000000000e+00  0.0000000000e+00 -7.5087647507e+01  7.5087647507e+01  0.0000000000e+00 0. 9.
      -24     2     1     2     0     0  1.6742537954e+00 -7.2799992125e+00  2.2247539337e+01  9.3249769752e+01  9.0248351996e+01 0. 9.
       24     2     1     2     0     0 -1.6742537954e+00  7.2799992125e+00  2.9273841417e+00  8.2100448742e+01  8.1707481857e+01 0. 9.
        1     1     3     0   102     0 -4.1472111963e+01  1.0675837707e+01  1.7541501165e+01  4.6278750464e+01  3.3000000000e-01 0. 9.
       -2     1     3     0     0   102  4.3146365758e+01 -1.7955836920e+01  4.7060381730e+00  4.6971019288e+01  3.3000000000e-01 0. 9.
       -1     1     4     0     0   103  3.0824460004e+01 -2.1909643270e+01 -3.3511876754e+00  3.7967343357e+01  3.3000000000e-01 0. 9.
        2     1     4     0   103     0 -3.2498713799e+01  2.9189642482e+01  6.2785718172e+00  4.4133105385e+01  3.3000000000e-01 0. 9.
#pdf    2   -2  1.023087e-01  7.662005e-02  8.204824e+01  5.600501e-01  5.693192e-01
</event>
<event>
     8  9999  1.000000e+00  8.933574e+01  7.815692e-03  1.354579e-01
        1    -1     0     0   101     0  0.0000000000e+00  0.0000000000e+00  1.4128181388e+02  1.4128181388e+02  0.0000000000e+00 0. 9.
       -1    -1     0     0     0   101  0.0000000000e+00  0.0000000000e+00 -5.8593532614e+01  5.8593532614e+01  0.0000000000e+00 0. 9.
      -24     2     1     2     0     0  3.3317722230e+01 -1.2253489655e+01  5.8933343527e+01  1.0493845133e+02  7.9238380624e+01 0. 9.
       24     2     1     2     0     0 -3.3317722230e+01  1.2253489655e+01  2.3754937737e+01  9.4936895167e+01  8.4785012671e+01 0. 9.
       15     1     3     0     0     0  5.6397127388e+01 -1.0747162060e+00  5.5345054659e+01  7.9044441684e+01  1.7769900000e+00  1.005315e-01 9.
      -16     1     3     0     0     0 -2.3079405158e+01 -1.1178773449e+01  3.5882888680e+00  2.5894009641e+01  0.0000000000e+00 0. 9.
       -3     1     4     0     0   102 -5.1014424251e+01 -2.0189133510e+00 -1.2085204412e+01  5.2467605801e+01  5.0000000000e-01 0. 9.
        4     1     4     0   102     0  1.7696702021e+01  1.4272403006e+01  3.5840142149e+01  4.2469289366e+01  1.5000000000e+00 0. 9.
#pdf    1   -1  1.441651e-01  5.978932e-02  8.682707e+01  2.872567e-01  3.907298e-01
</event>
<event>
     8  9999  1.000000e+00  1.166161e+02  7.839367e-03  1.297433e-01
        2    -1     0     0   101     0  0.0000000000e+00  0.0000000000e+00  2.5979137346e+02  2.5979137346e+02  0.0000000000e+00 0. 9.
       -2    -1     0     0     0   101  0.0000000000e+00  0.0000000000e+00 -5.4812106352e+01  5.4812106352e+01  0.0000000000e+00 0. 9.
      -24     2     1     2     0     0  6.3449372302e+01  5.2948243525e+01  6.8669602656e+01  1.3485147057e+02  8.1486596733e+01 0. 9.
       24     2     1     2     0     0 -6.3449372302e+01 -5.2948243525e+01  1.3630966446e+02  1.7975200925e+02  8.3072985184e+01 0. 9.
        3     1     3     0   102     0 -7.8639134114e+00  6.1123163922e+00 -1.3235944895e+01  1.6572319786e+01  5.0000000000e-01 0. 9.
       -4     1     3     0     0   102  7.1313285713e+01  4.6835927133e+01  8.1905547551e+01  1.1827915078e+02  1.5000000000e+00 0. 9.
       -1     1     4     0     0   103  1.3854581521e+01  2.7685617995e+00  4.7263643528e+01  4.9331280777e+01  3.3000000000e-01 0. 9.
        2     1     4     0   103     0 -7.7303953823e+01 -5.5716805324e+01  8.9046020928e+01  1.3042072847e+02  3.3000000000e-01 0. 9.
#pdf    2   -2  2.650932e-01  5.593072e-02  1.160578e+02  3.864303e-01  5.758587e-01
</event>
<event>
     8  9999  1.000000e+00  9.082715e+01  7.817159e-03  1.350882e-01
        1    -1     0     0   101     0  0.0000000000e+00  0.0000000000e+00  8.4367360533e+01  8.4367360533e+01  0.0000000000e+00 0. 9.
       -1    -1     0     0     0   101  0.0000000000e+00  0.0000000000e+00 -1.2757629598e+02  1.2757629598e+02  0.0000000000e+00 0. 9.
      -24     2     1     2     0     0 -2.6017830785e+01 -3.0299269565e+01  2.9731508592e+01  9.4895082583e+01  8.0784533423e+01 0. 9.
       24     2     1     2     0     0  2.6017830785e+01  3.0299269565e+01 -7.2940444040e+01  1.1704857393e+02  8.2371639705e+01 0. 9.
        3     1     3     0   102     0 -1.8334138407e+01 -5.6723571133e+01  3.1220197303e+01  6.7295281208e+01  5.0000000000e-01 0. 9.
       -4     1     3     0     0   102 -7.6836923772e+00  2.6424301568e+01 -1.4886887113e+00  2.7599801376e+01  1.5000000000e+00 0. 9.
      -15     1     4     0     0     0  6.6913520674e+00  9.7510915964e+00 -8.5383740639e+01  8.6217160929e+01  1.7769900000e+00  4.223337e-02 9.
       16     1     4     0     0     0  1.9326478717e+01  2.0548177968e+01  1.2443296599e+01  3.0831413002e+01  0.0000000000e+00 0. 9.
#pdf    1   -1  8.608914e-02  1.301799e-01  9.011722e+01  3.541739e-01  3.022155e-01
</event>
<event>
     8  9999  1.000000e+00  8.093329e+01  7.806953e-03  1.377061e-01
        2    -1     0     0   101     0  0.0000000000e+00  0.0000000000e+00  6.0414814971e+01  6.0414814971e+01  0.0000000000e+00 0. 9.
       -2    -1     0     0     0   101  0.0000000000e+00  0.0000000000e+00 -3.4275009625e+02  3.4275009625e+02  0.0000000000e+00 0. 9.
      -24     2     1     2     0     0 -1.1414174055e+01  9.0474078213e+00 -3.0776322679e+02  3.1818926161e+02  7.9461081529e+01 0. 9.
       24     2     1     2     0     0  1.1414174055e+01 -9.0474078213e+00  2.5427945516e+01  8.4975649612e+01  7.9763034397e+01 0. 9.
       13     1     3     0     0     0  2.3559623636e+01 -2.3241483885e+01 -1.1886296468e+02  1.2338410747e+02  1.0566000000e-01  1.359088e+05 9.
      -14     1     3     0     0     0 -3.4973797691e+01  3.2288891706e+01 -1.8890026211e+02  1.9480515414e+02  0.0000000000e+00 0. 9.
       -1     1     4     0     0   102  2.5440164726e+01  2.4335292973e+01 -7.5398253868e+00  3.6005087588e+01  3.3000000000e-01 0. 9.
        2     1     4     0   102     0 -1.4025990671e+01 -3.3382700795e+01  3.2967770902e+01  4.8970562024e+01  3.3000000000e-01 0. 9.
#pdf    2   -2  6.164777e-02  3.497450e-01  8.078491e+01  5.736468e-01  2.871366e-01
</event>
<event>
     8  9999  1.000000e+00  9.047300e+01  7.816813e-03  1.351753e-01
        2    -1     0     0   101     0  0.0000000000e+00  0.0000000000e+00  2.9577478888e+02  2.9577478888e+02  0.0000000000e+00 0. 9.
       -1    -1     0     0     0   101  0.0000000000e+00  0.0000000000e+00 -1.1142282748e+02  1.1142282748e+02  0.0000000000e+00 0. 9.
       23     2     1     2     0     0 -2.8120145730e+01 -8.5391982617e+00 -8.2923969920e+01  1.2653614369e+02  9.0946964601e+01 0. 9.
       24     2     1     2     0     0  2.8120145730e+01  8.5391982617e+00  2.6727593132e+02  2.8066147266e+02  8.0441147861e+01 0. 9.
        4     1     3     0   102     0 -9.0670967475e+00 -2.8784565629e+01  8.1546792875e+00  3.1297160513e+01  1.5000000000e+00 0. 9.
       -4     1     3     0     0   102 -1.9053048983e+01  2.0245367367e+01 -9.1078649208e+01  9.5238983179e+01  1.5000000000e+00 0. 9.
       -1     1     4     0     0   103 -2.3694727102e+01 -1.1445412553e+01  5.1318903790e+01  5.7673012295e+01  3.3000000000e-01 0. 9.
        4     1     4     0   103     0  5.1814872832e+01  1.9984610814e+01  2.1595702753e+02  2.2298846037e+02  1.5000000000e+00 0. 9.
#pdf    2   -1  3.018110e-01  1.136968e-01  8.564134e+01  3.480623e-01  3.217486e-01
</event>
<event>
     8  9999  1.000000e+00  1.000491e+02  7.825737e-03  1.329687e-01
        1    -1     0     0   101     0  0.0000000000e+00  0.0000000000e+00  2.0713305791e+02  2.0713305791e+02  0.0000000000e+00 0. 9.
       -1    -1     0     0     0   101  0.0000000000e+00  0.0000000000e+00 -1.2112319724e+02  1.2112319724e+02  0.0000000000e+00 0. 9.
       23     2     1     2     0     0  3.4107840386e+01  2.6847428271e+01  1.7034215273e+02  1.9784217662e+02  9.0779671038e+01 0. 9.
       23     2     1     2     0     0 -3.4107840386e+01 -2.6847428271e+01 -8.4332292056e+01  1.3041407853e+02  8.9508475666e+01 0. 9.
        4     1     3     0   102     0  2.8817020262e+01  3.1898376489e+01  1.8032025710e+02  1.8537953555e+02  1.5000000000e+00 0. 9.
       -4     1     3     0     0   102  5.2908201235e+00 -5.0509482180e+00 -9.9781043763e+00  1.2462641069e+01  1.5000000000e+00 0. 9.
        5     1     4     0   103     0  1.5339153412e+00 -1.1791861881e+01  1.7314842957e+01  2.1546338193e+01  4.8000000000e+00 0. 9.
       -5     1     4     0     0   103 -3.5641755727e+01 -1.5055566389e+01 -1.0164713501e+02  1.0886774034e+02  4.8000000000e+00 0. 9.
#pdf    1   -1  2.113603e-01  1.235951e-01  9.947812e+01  2.143872e-01  3.081831e-01
</event>
<event>
     8  9999  1.000000e+00  8.862000e+01  7.814979e-03  1.356382e-01
        2    -1     0     0   101     0  0.0000000000e+00  0.0000000000e+00  3.2029160447e+02  3.2029160447e+02  0.0000000000e+00 0. 9.
       -1    -1     0     0     0   101  0.0000000000e+00  0.0000000000e+00 -5.1773312625e+01  5.1773312625e+01  0.0000000000e+00 0. 9.
       23     2     1     2     0     0  1.8995427936e+01 -1.7971527401e+01  2.7203832111e+02  2.8746845701e+02  8.9159764174e+01 0. 9.
       24     2     1     2     0     0 -1.8995427936e+01  1.7971527401e+01 -3.5200292625e+00  8.4596460081e+01  8.0376416770e+01 0. 9.
       16     1     3     0     0     0  3.4534591389e+01 -4.3727460152e+01  1.1765925822e+02  1.3018613528e+02  0.0000000000e+00 0. 9.
      -16     1     3     0     0     0 -1.5539163454e+01  2.5755932751e+01  1.5437906289e+02  1.5728232173e+02  0.0000000000e+00 0. 9.
       -1     1     4     0     0   102  1.2411888134e+01 -1.1116520415e+01 -2.9957885709e+01  3.4281420760e+01  3.3000000000e-01 0. 9.
        2     1     4     0   102     0 -3.1407316070e+01  2.9088047816e+01  2.6437856446e+01  5.0315039321e+01  3.3000000000e-01 0. 9.
#pdf    2   -1  3.268282e-01  5.282991e-02  8.452319e+01  3.153421e-01  4.023580e-01
</event>
<event>
     8  9999  1.000000e+00  1.023492e+02  7.827756e-03  1.324802e-01
        1    -1     0     0   101     0  0.0000000000e+00  0.0000000000e+00  2.3755503224e+02  2.3755503224e+02  0.0000000000e+00 0. 9.
       -1    -1     0     0     0   101  0.0000000000e+00  0.0000000000e+00 -5.1637413372e+01  5.1637413372e+01  0.0000000000e+00 0. 9.
      -24     2     1     2     0     0  6.5589714079e+01  1.4043572877e+01  1.4969801259e+02  1.8249076398e+02  7.9963438080e+01 0. 9.
       24     2     1     2     0     0 -6.5589714079e+01 -1.4043572877e+01  3.6219606273e+01  1.0670168163e+02  7.4660273593e+01 0. 9.
        3     1     3     0   102     0  5.8956040943e+01  1.8273670077e+01  1.5879536826e+02  1.7037007003e+02  5.0000000000e-01 0. 9.
       -4     1     3     0     0   102  6.6336731365e+00 -4.2300971998e+00 -9.0973556652e+00  1.2120693945e+01  1.5000000000e+00 0. 9.
      -13     1     4     0     0     0 -6.4984100107e+01  1.6223906509e+01  1.2254476723e+01  6.8090614426e+01  1.0566000000e-01  1.068645e+05 9.
       14     1     4     0     0     0 -6.0561397253e-01 -3.0267479386e+01  2.3965129550e+01  3.8611067209e+01  0.0000000000e+00 0. 9.
#pdf    1   -1  2.424031e-01  5.269124e-02  1.003663e+02  1.845962e-01  4.022580e-01
</event>
<event>
     8  9999  1.000000e+00  1.084405e+02  7.832895e-03  1.312536e-01
        2    -1     0     0   101     0  0.0000000000e+00  0.0000000000e+00  1.7625661914e+02  1.7625661914e+02  0.0000000000e+00 0. 9.
       -2    -1     0     0     0   101  0.0000000000e+00  0.0000000000e+00 -1.1613938751e+02  1.1613938751e+02  0.0000000000e+00 0. 9.
      -24     2     1     2     0     0 -6.9892529063e+01 -2.1558864719e+01 -6.5231623932e+01  1.2696986465e+02  8.0724417003e+01 0. 9.
       24     2     1     2     0     0  6.9892529063e+01  2.1558864719e+01  1.2534885556e+02  1.6542614201e+02  7.9395986062e+01 0. 9.
        1     1     3     0   102     0 -3.3651546427e+01 -4.9830945574e+01 -2.2476551643e+01  6.4193878116e+01  3.3000000000e-01 0. 9.
       -2     1     3     0     0   102 -3.6240982636e+01  2.8272080856e+01 -4.2755072289e+01  6.2775986529e+01  3.3000000000e-01 0. 9.
      -15     1     4     0     0     0  5.0348425821e+01  4.5288728991e+01  5.0454993456e+01  8.4468319590e+01  1.7769900000e+00  6.163097e-02 9.
       16     1     4     0     0     0  1.9544103241e+01 -2.3729864272e+01  7.4893862103e+01  8.0957822418e+01  0.0000000000e+00 0. 9.
#pdf    2   -2  1.798537e-01  1.185096e-01  1.079513e+02  4.937291e-01  5.471194e-01
</event>
<event>
     8  9999  1.000000e+00  9.264337e+01  7.818913e-03  1.346488e-01
        2    -1     0     0   101     0  0.0000000000e+00  0.0000000000e+00  5.5478095473e+01  5.5478095473e+01  0.0000000000e+00 0. 9.
       -2    -1     0     0     0   101  0.0000000000e+00  0.0000000000e+00 -3.9630994148e+02  3.9630994148e+02  0.0000000000e+00 0. 9.
      -24     2     1     2     0     0 -2.9984473619e+01  3.6100356397e+01 -3.4769649680e+02  3.6016230492e+02  8.1373998342e+01 0. 9.
       24     2     1     2     0     0  2.9984473619e+01 -3.6100356397e+01  6.8646507920e+00  9.1625732037e+01  7.8395452360e+01 0. 9.
       13     1     3     0     0     0 -2.3524633151e+01 -1.9865005890e+01 -6.5220424298e+01  7.2123101247e+01  1.0566000000e-01  8.777243e+05 9.
      -14     1     3     0     0     0 -6.4598404682e+00  5.5965362286e+01 -2.8247607250e+02  2.8803920367e+02  0.0000000000e+00 0. 9.
      -11     1     4     0     0     0  1.8285406247e+00  2.9364479254e+00 -3.0498683935e+01  3.0694234137e+01  5.1100000000e-04 0. 9.
       12     1     4     0     0     0  2.8155932994e+01 -3.9036804322e+01  3.7363334727e+01  6.0931497900e+01  0.0000000000e+00 0. 9.
#pdf    2   -2  5.661030e-02  4.043979e-01  9.136822e+01  5.753413e-01  2.165448e-01
</event>
<event>
     8  9999  1.000000e+00  9.304591e+01  7.819298e-03  1.345530e-01
       -2    -1     0     0     0   101  0.0000000000e+00  0.0000000000e+00  1.1382598145e+02  1.1382598145e+02  0.0000000000e+00 0. 9.
        2    -1     0     0   101     0  0.0000000000e+00  0.0000000000e+00 -7.7574176086e+01  7.7574176086e+01  0.0000000000e+00 0. 9.
      -24     2     1     2     0     0  2.8558676517e+00  4.6412864634e+01  3.1663707466e+01  9.9360667621e+01  8.1900194847e+01 0. 9.
       24     2     1     2     0     0 -2.8558676517e+00 -4.6412864634e+01  4.5880978963e+00  9.2039489914e+01  7.9296324491e+01 0. 9.
        1     1     3     0   102     0 -3.0913769492e+01  3.8911433672e+00 -7.9358344598e+00  3.2154136740e+01  3.3000000000e-01 0. 9.
       -2     1     3     0     0   102  3.3769637144e+01  4.2521721267e+01  3.9599541926e+01  6.7206530881e+01  3.3000000000e-01 0. 9.
       -3     1     4     0     0   103  3.7480074989e+01 -2.8443338530e+01  7.9843971501e+00  4.7726094809e+01  5.0000000000e-01 0. 9.
        4     1     4     0   103     0 -4.0335942640e+01 -1.7969526104e+01 -3.3962992538e+00  4.4313395105e+01  1.5000000000e+00 0. 9.
#pdf   -2    2  1.161490e-01  7.915732e-02  9.192506e+01  6.831693e-02  1.102585e-01
</event>
<event>
     8  9999  1.000000e+00  1.143847e+02  7.837646e-03  1.301413e-01
        2    -1     0     0   101     0  0.0000000000e+00  0.0000000000e+00  3.7993154159e+02  3.7993154159e+02  0.0000000000e+00 0. 9.
       -2    -1     0     0     0   101  0.0000000000e+00  0.0000000000e+00 -4.0251002723e+01  4.0251002723e+01  0.0000000000e+00 0. 9.
      -24     2     1     2     0     0 -7.8013593506e+01  1.9104726342e+01  9.1987709968e+01  1.4798706710e+02  8.3590202190e+01 0. 9.
       24     2     1     2     0     0  7.8013593506e+01 -1.9104726342e+01  2.4769282890e+02  2.7219547722e+02  7.9293940434e+01 0. 9.
        3     1     3     0   102     0 -3.3150463440e+01 -3.0376025833e+01  1.8366675792e+01  4.8572018193e+01  5.0000000000e-01 0. 9.
       -4     1     3     0     0   102 -4.4863130065e+01  4.9480752176e+01  7.3621034176e+01  9.9415048903e+01  1.5000000000e+00 0. 9.
       -1     1     4     0     0   103  1.8021999005e+00 -2.6851483238e+01  2.5145672735e+01  3.6832917803e+01  3.3000000000e-01 0. 9.
        2     1     4     0   103     0  7.6211393605e+01  7.7467568959e+00  2.2254715616e+02  2.3536255941e+02  3.3000000000e-01 0. 9.
#pdf    2   -2  3.876852e-01  4.107245e-02  1.128656e+02  2.296099e-01  5.855210e-01
</event>
<event>
     8  9999  1.000000e+00  1.438431e+02  7.858110e-03  1.255718e-01
        2    -1     0     0   101     0  0.0000000000e+00  0.0000000000e+00  1.3338460462e+02  1.3338460462e+02  0.0000000000e+00 0. 9.
       -2    -1     0     0     0   101  0.0000000000e+00  0.0000000000e+00 -1.6202330599e+02  1.6202330599e+02  0.0000000000e+00 0. 9.
      -24     2     1     2     0     0 -2.3510469568e+01 -1.1612679391e+02 -4.4910491647e+01  1.5218608843e+02  8.4294002220e+01 0. 9.
       24     2     1     2     0     0  2.3510469568e+01  1.1612679391e+02  1.6271790269e+01  1.4322182217e+02  7.8800664626e+01 0. 9.
        3     1     3     0   102     0  1.6597442271e+01 -3.7236596616e+01  1.6996492772e+01  4.4172049806e+01  5.0000000000e-01 0. 9.
       -4     1     3     0     0   102 -4.0107911839e+01 -7.8890197292e+01 -6.1906984419e+01  1.0801403863e+02  1.5000000000e+00 0. 9.
       -3     1     4     0     0   103  3.7698821552e+01  7.8656727158e+01 -1.9647159183e+01  8.9411088449e+01  5.0000000000e-01 0. 9.
        2     1     4     0   103     0 -1.4188351984e+01  3.7470066750e+01  3.5918949452e+01  5.3810733725e+01  3.3000000000e-01 0. 9.
#pdf    2   -2  1.361067e-01  1.653299e-01  1.422945e+02  5.289899e-01  5.016942e-01
</event>
<event>
     8  9999  1.000000e+00  1.556027e+02  7.865153e-03  1.240779e-01
        2    -1     0     0   101     0  0.0000000000e+00  0.0000000000e+00  5.5974995302e+02  5.5974995302e+02  0.0000000000e+00 0. 9.
       -1    -1     0     0     0   101  0.0000000000e+00  0.0000000000e+00 -7.9374679853e+01  7.9374679853e+01  0.0000000000e+00 0. 9.
       23     2     1     2     0     0  1.0670332181e+02  5.8466805059e+01  2.2546724056e+01  1.5475170626e+02  9.2928841846e+01 0. 9.
       24     2     1     2     0     0 -1.0670332181e+02 -5.8466805059e+01  4.5782854911e+02  4.8437292662e+02  1.0102566741e+02 0. 9.
       11     1     3     0     0     0  1.1660470986e+02  3.7009217684e+01  3.6044844010e+01  1.2753654902e+02  5.1100000000e-04 0. 9.
      -11     1     3     0     0     0 -9.9013880528e+00  2.1457587375e+01 -1.3498119954e+01  2.7215157245e+01  5.1100000000e-04 0. 9.
       -1     1     4     0     0   102  3.9414253619e+00  1.9302885546e+01  9.8154879334e+01  1.0011306339e+02  3.3000000000e-01 0. 9.
        2     1     4     0   102     0 -1.1064474717e+02 -7.7769690605e+01  3.5967366978e+02  3.8425986323e+02  3.3000000000e-01 0. 9.
#pdf    2   -1  5.711734e-01  8.099457e-02  1.531004e+02  6.479654e-02  3.557803e-01
</event>
<event>
     8  9999  1.000000e+00  8.586847e+01  7.812187e-03  1.363500e-01
        2    -1     0     0   101     0  0.0000000000e+00  0.0000000000e+00  1.4837943169e+02  1.4837943169e+02  0.0000000000e+00 0. 9.
       -2    -1     0     0     0   101  0.0000000000e+00  0.0000000000e+00 -5.0211596505e+02  5.0211596505e+02  0.0000000000e+00 0. 9.
      -24     2     1     2     0     0 -2.6405039905e+01  1.2283836499e+01 -4.8566187588e+02  4.9324584965e+02  8.1091872258e+01 0. 9.
       24     2     1     2     0     0  2.6405039905e+01 -1.2283836499e+01  1.3192534251e+02  1.5724954709e+02  8.0467417576e+01 0. 9.
        1     1     3     0   102     0 -2.1372040847e+01 -2.8348118682e+01 -1.1568596782e+02  1.2101128879e+02  3.3000000000e-01 0. 9.
       -2     1     3     0     0   102 -5.0329990587e+00  4.0631955181e+01 -3.6997590806e+02  3.7223456087e+02  3.3000000000e-01 0. 9.
      -11     1     4     0     0     0  5.4797696206e+00 -3.9523647860e+01  3.0670877179e+01  5.0327421178e+01  5.1100000000e-04 0. 9.
       12     1     4     0     0     0  2.0925270285e+01  2.7239811361e+01  1.0125446534e+02  1.0692212591e+02  0.0000000000e+00 0. 9.
#pdf    2   -2  1.514076e-01  5.123632e-01  8.557525e+01  5.271863e-01  1.131206e-01
</event>
<event>
     8  9999  1.000000e+00  9.440828e+01  7.820587e-03  1.342326e-01
        2    -1     0     0   101     0  0.0000000000e+00  0.0000000000e+00  5.7826247176e+01  5.7826247176e+01  0.0000000000e+00 0. 9.
       -2    -1     0     0     0   101  0.0000000000e+00  0.0000000000e+00 -1.5804277148e+02  1.5804277148e+02  0.0000000000e+00 0. 9.
      -24     2     1     2     0     0  5.7543033497e-01 -4.9608789019e+01 -6.7016050586e+01  1.1566830735e+02  8.0166347185e+01 0. 9.
       24     2     1     2     0     0 -5.7543033497e-01  4.9608789019e+01 -3.3200473721e+01  1.0020071131e+02  8.0477003074e+01 0. 9.
        1     1     3     0   102     0  7.0130325748e+00 -5.1581507325e+00  1.7730300463e+01  1.9755039848e+01  3.3000000000e-01 0. 9.
       -2     1     3     0     0   102 -6.4376022398e+00 -4.4450638287e+01 -8.4746351049e+01  9.5913267502e+01  3.3000000000e-01 0. 9.
      -11     1     4     0     0     0 -2.6169554591e+00 -1.9395979790e+01 -2.3348259531e+01  3.0466271700e+01  5.1100000000e-04 0. 9.
       12     1     4     0     0     0  2.0415251241e+00  6.9004768809e+01 -9.8522141898e+00  6.9734439610e+01  0.0000000000e+00 0. 9.
#pdf    2   -2  5.900637e-02  1.612681e-01  9.427622e+01  5.744800e-01  5.159798e-01
</event>
<event>
     8  9999  1.000000e+00  8.176681e+01  7.807858e-03  1.374694e-01
        2    -1     0     0   101     0  0.0000000000e+00  0.0000000000e+00  5.0235293157e+01  5.0235293157e+01  0.0000000000e+00 0. 9.
       -2    -1     0     0     0   101  0.0000000000e+00  0.0000000000e+00 -3.2077546033e+02  3.2077546033e+02  0.0000000000e+00 0. 9.
      -24     2     1     2     0     0  2.6949193742e+00  7.3052111499e+00 -2.7719942462e+02  2.8902110099e+02  8.1443520994e+01 0. 9.
       24     2     1     2     0     0 -2.6949193742e+00 -7.3052111499e+00  6.6592574400e+00  8.1989652495e+01  8.1346964948e+01 0. 9.
        1     1     3     0   102     0 -3.7696914058e+01  1.4538069516e+01 -1.5135110666e+02  1.5665145764e+02  3.3000000000e-01 0. 9.
       -2     1     3     0     0   102  4.0391833433e+01 -7.2328583664e+00 -1.2584831796e+02  1.3236964335e+02  3.3000000000e-01 0. 9.
       -3     1     4     0     0   103  3.7367540500e+01  5.4817046533e+00 -5.5441442889e+00  3.8175511848e+01  5.0000000000e-01 0. 9.
        4     1     4     0   103     0 -4.0062459874e+01 -1.2786915803e+01  1.2203401729e+01  4.3814140648e+01  1.5000000000e+00 0. 9.
#pdf    2   -2  5.126050e-02  3.273219e-01  8.171877e+01  5.772699e-01  3.158963e-01
</event>
<event>
     8  9999  1.000000e+00  1.178197e+02  7.840282e-03  1.295327e-01
        1    -1     0     0   101     0  0.0000000000e+00  0.0000000000e+00  1.3702419494e+02  1.3702419494e+02  0.0000000000e+00 0. 9.
       -1    -1     0     0     0   101  0.0000000000e+00  0.0000000000e+00 -1.1970581013e+02  1.1970581013e+02  0.0000000000e+00 0. 9.
      -24     2     1     2     0     0 -2.8829695182e+00 -8.0826678245e+01  5.9063338565e+01  1.3485255226e+02  9.0307637884e+01 0. 9.
       24     2     1     2     0     0  2.8829695182e+00  8.0826678245e+01 -4.1744953762e+01  1.2187745280e+02  8.1056825180e+01 0. 9.
        1     1     3     0   102     0  6.1058978545e-01  1.7292642301e+01 -4.5112256477e+00  1.7884863837e+01  3.3000000000e-01 0. 9.
       -2     1     3     0     0   102 -3.4935593036e+00 -9.8119320546e+01  6.3574564213e+01  1.1696768843e+02  3.3000000000e-01 0. 9.
       -3     1     4     0     0   103  2.8406531867e+01 -1.3483521038e+00 -1.0077520191e+01  3.0175412496e+01  5.0000000000e-01 0. 9.
        4     1     4     0   103     0 -2.5523562349e+01  8.2175030349e+01 -3.1667433571e+01  9.1702040309e+01  1.5000000000e+00 0. 9.
#pdf    1   -1  1.398206e-01  1.221488e-01  1.145053e+02  2.875403e-01  3.077732e-01
</event>
<event>
     8  9999  1.000000e+00  9.531553e+01  7.821435e-03  1.340227e-01
       -1    -1     0     0     0   101  0.0000000000e+00  0.0000000000e+00  2.0369876660e+02  2.0369876660e+02  0.0000000000e+00 0. 9.
        2    -1     0     0   101     0  0.0000000000e+00  0.0000000000e+00 -8.9720412638e+01  8.9720412638e+01  0.0000000000e+00 0. 9.
       23     2     1     2     0     0  4.4235473840e+01  8.4089242463e+00  1.6233816665e+02  1.9099057626e+02  8.9979068219e+01 0. 9.
       24     2     1     2     0     0 -4.4235473840e+01 -8.4089242463e+00 -4.8359812687e+01  1.0242860297e+02  7.8265318443e+01 0. 9.
       14     1     3     0     0     0  1.9905032504e+01 -1.5315695357e+00 -5.8167810635e+00  2.0794012748e+01  0.0000000000e+00 0. 9.
      -14     1     3     0     0     0  2.4330441336e+01  9.9404937820e+00  1.6815494771e+02  1.7019656351e+02  0.0000000000e+00 0. 9.
       -3     1     4     0     0   102  1.6039433522e+00 -6.5407036782e+00  1.9424370041e+01  2.0564765751e+01  5.0000000000e-01 0. 9.
        4     1     4     0   102     0 -4.5839417192e+01 -1.8682205681e+00 -6.7784182729e+01  8.1863837223e+01  1.5000000000e+00 0. 9.
#pdf   -1    2  2.078559e-01  9.155144e-02  9.029367e+01  3.753942e-02  9.325173e-02
</event>
<event>
     8  9999  1.000000e+00  1.106363e+02  7.834679e-03  1.308335e-01
        1    -1     0     0   101     0  0.0000000000e+00  0.0000000000e+00  2.3753753438e+02  2.3753753438e+02  0.0000000000e+00 0. 9.
       -1    -1     0     0     0   101  0.0000000000e+00  0.0000000000e+00 -1.2128734112e+02  1.2128734112e+02  0.0000000000e+00 0. 9.
      -24     2     1     2     0     0 -3.7331408699e+00 -7.5471613505e+01  1.9422805939e+02  2.2361851943e+02  8.1060486012e+01 0. 9.
       24     2     1     2     0     0  3.7331408699e+00  7.5471613505e+01 -7.7977866129e+01  1.3520635607e+02  8.0562462290e+01 0. 9.
       11     1     3     0     0     0 -3.4894899613e+01 -1.6512712805e+01  1.0746064254e+02  1.1418455849e+02  5.1100000000e-04 0. 9.
      -12     1     3     0     0     0  3.1161758743e+01 -5.8958900700e+01  8.6767416853e+01  1.0943396094e+02  0.0000000000e+00 0. 9.
       -1     1     4     0     0   102  7.7058358531e+00  8.7667878338e+01 -4.3000900224e+01  9.7950105251e+01  3.3000000000e-01 0. 9.
        2     1     4     0   102     0 -3.9726949832e+00 -1.2196264833e+01 -3.4976965905e+01  3.7256250820e+01  3.3000000000e-01 0. 9.
#pdf    1   -1  2.423852e-01  1.237626e-01  1.104546e+02  1.828935e-01  3.064269e-01
</event>
<event>
     8  9999  1.000000e+00  1.139449e+02  7.837303e-03  1.302210e-01
        2    -1     0     0   101     0  0.0000000000e+00  0.0000000000e+00  7.7645041413e+01  7.7645041413e+01  0.0000000000e+00 0. 9.
       -2    -1     0     0     0   101  0.0000000000e+00  0.0000000000e+00 -5.3101800196e+02  5.3101800196e+02  0.0000000000e+00 0. 9.
      -24     2     1     2     0     0  7.7441924905e+01 -2.1885087714e+01 -4.7837456163e+02  4.9168047829e+02  8.0195153920e+01 0. 9.
       24     2     1     2     0     0 -7.7441924905e+01  2.1885087714e+01  2.5001601091e+01  1.1698256508e+02  8.1139581455e+01 0. 9.
        1     1     3     0   102     0  8.2336855043e+01 -4.2728786092e+00 -2.6513505131e+02  2.7765863848e+02  3.3000000000e-01 0. 9.
       -2     1     3     0     0   102 -4.8949301375e+00 -1.7612209105e+01 -2.1323951032e+02  2.1402183980e+02  3.3000000000e-01 0. 9.
      -11     1     4     0     0     0  1.0811878064e+01  1.3257139711e+01 -1.2001672324e+01  2.0897095478e+01  5.1100000000e-04 0. 9.
       12     1     4     0     0     0 -8.8253802970e+01  8.6279480031e+00  3.7003273415e+01  9.6085469603e+01  0.0000000000e+00 0. 9.
#pdf    2   -2  7.922963e-02  5.418551e-01  1.136111e+02  5.664565e-01  8.659894e-02
</event>
<event>
     8  9999  1.000000e+00  1.135729e+02  7.837011e-03  1.302887e-01
        2    -1     0     0   101     0  0.0000000000e+00  0.0000000000e+00  3.5104763959e+02  3.5104763959e+02  0.0000000000e+00 0. 9.
       -2    -1     0     0     0   101  0.0000000000e+00  0.0000000000e+00 -5.0725819872e+01  5.0725819872e+01  0.0000000000e+00 0. 9.
      -24     2     1     2     0     0  1.0043584844e+00 -8.0886663918e+01  4.4476923072e+01  1.2176124680e+02  7.9397376539e+01 0. 9.
       24     2     1     2     0     0 -1.0043584844e+00  8.0886663918e+01  2.5584489664e+02  2.8001221266e+02  8.0041032994e+01 0. 9.
       15     1     3     0     0     0  1.1348178916e+01  5.4667606270e+00  3.1315006536e+01  3.3800206571e+01  1.7769900000e+00  2.863733e-02 9.
      -16     1     3     0     0     0 -1.0343820431e+01 -8.6353424545e+01  1.3161916537e+01  8.7961040232e+01  0.0000000000e+00 0. 9.
       -3     1     4     0     0   102 -3.0605340198e+01  5.8437066145e+01  2.1446611264e+02  2.2438257735e+02  5.0000000000e-01 0. 9.
        4     1     4     0   102     0  2.9600981713e+01  2.2449597773e+01  4.1378784006e+01  5.5629635307e+01  1.5000000000e+00 0. 9.
#pdf    2   -2  3.582119e-01  5.176104e-02  1.133473e+02  2.651621e-01  5.780142e-01
</event>
<event>
     8  9999  1.000000e+00  8.544802e+01  7.811753e-03  1.364615e-01
        2    -1     0     0   101     0  0.0000000000e+00  0.0000000000e+00  1.1310494431e+02  1.1310494431e+02  0.0000000000e+00 0. 9.
       -2    -1     0     0     0   101  0.0000000000e+00  0.0000000000e+00 -8.2844027762e+01  8.2844027762e+01  0.0000000000e+00 0. 9.
      -24     2     1     2     0     0  2.8458581583e+01  8.4842631700e-01 -3.0934244686e+01  9.0670659950e+01  8.0334490654e+01 0. 9.
       24     2     1     2     0     0 -2.8458581583e+01 -8.4842631700e-01  6.1195161237e+01  1.0527831212e+02  8.0796438981e+01 0. 9.
        1     1     3     0   102     0 -2.6536172178e+01 -9.9797299226e+00 -1.6444813564e+01  3.2776580608e+01  3.3000000000e-01 0. 9.
       -2     1     3     0     0   102  5.4994753760e+01  1.0828156240e+01 -1.4489431122e+01  5.7894079343e+01  3.3000000000e-01 0. 9.
       -1     1     4     0     0   103 -1.4187987868e+01  1.8556436043e+01 -1.3371229993e+01  2.6917262303e+01  3.3000000000e-01 0. 9.
        2     1     4     0   103     0 -1.4270593714e+01 -1.9404862360e+01  7.4566391230e+01  7.8361049822e+01  3.3000000000e-01 0. 9.
#pdf    2   -2  1.154132e-01  8.453472e-02  8.523052e+01  5.528545e-01  5.666172e-01
</event>
<event>
     8  9999  1.000000e+00  8.871188e+01  7.815071e-03  1.356150e-01
        1    -1     0     0   101     0  0.0000000000e+00  0.0000000000e+00  1.0984847269e+02  1.0984847269e+02  0.0000000000e+00 0. 9.
       -1    -1     0     0     0   101  0.0000000000e+00  0.0000000000e+00 -8.3861654964e+01  8.3861654964e+01  0.0000000000e+00 0. 9.
      -24     2     1     2     0     0  1.2895007149e+00  3.6490775084e+01  5.0003059416e+01  1.0211260456e+02  8.1199991258e+01 0. 9.
       24     2     1     2     0     0 -1.2895007149e+00 -3.6490775084e+01 -2.4016241689e+01  9.1597523098e+01  8.0498986916e+01 0. 9.
        1     1     3     0   102     0 -2.3014467461e+00  3.1754095350e+01  7.2293700456e+01  7.8994349508e+01  3.3000000000e-01 0. 9.
       -4     1     3     0     0   102  3.5909474610e+00  4.7366797341e+00 -2.2290641040e+01  2.3118255050e+01  1.5000000000e+00 0. 9.
      -15     1     4     0     0     0  3.9142038408e+01 -2.1828545484e+01 -7.2385052996e+00  4.5432787952e+01  1.7769900000e+00  4.437067e-03 9.
       16     1     4     0     0     0 -4.0431539123e+01 -1.4662229600e+01 -1.6777736389e+01  4.6164735146e+01  0.0000000000e+00 0. 9.
#pdf    1   -1  1.120903e-01  8.557312e-02  8.839302e+01  3.231618e-01  3.550241e-01
</event>
<event>
     8  9999  1.000000e+00  1.155635e+02  7.838559e-03  1.299298e-01
        2    -1     0     0   101     0  0.0000000000e+00  0.0000000000e+00  3.7194601776e+02  3.7194601776e+02  0.0000000000e+00 0. 9.
       -1    -1     0     0     0   101  0.0000000000e+00  0.0000000000e+00 -8.5963899066e+01  8.5963899066e+01  0.0000000000e+00 0. 9.
       23     2     1     2     0     0  7.0389652353e+01  2.2326549437e+01  3.2024880908e+02  3.4234779647e+02  9.5862067921e+01 0. 9.
       24     2     1     2     0     0 -7.0389652353e+01 -2.2326549437e+01 -3.4266690381e+01  1.1556212035e+02  8.2019629498e+01 0. 9.
        4     1     3     0   102     0 -1.5009978630e+01 -1.8109640673e+01  3.8172570860e+01  4.4862609262e+01  1.5000000000e+00 0. 9.
       -4     1     3     0     0   102  8.5399630983e+01  4.0436190110e+01  2.8207623822e+02  2.9748518721e+02  1.5000000000e+00 0. 9.
       -3     1     4     0     0   103 -3.8495411728e+01  1.3891492939e+01 -5.0152282989e+01  6.4733081104e+01  5.0000000000e-01 0. 9.
        4     1     4     0   103     0 -3.1894240625e+01 -3.6218042376e+01  1.5885592608e+01  5.0829039250e+01  1.5000000000e+00 0. 9.
#pdf    2   -1  3.795368e-01  8.771826e-02  1.103648e+02  2.399284e-01  3.500056e-01
</event>
<event>
     8  9999  1.000000e+00  8.211782e+01  7.808237e-03  1.373707e-01
        2    -1     0     0   101     0  0.0000000000e+00  0.0000000000e+00  5.7434847508e+01  5.7434847508e+01  0.0000000000e+00 0. 9.
       -2    -1     0     0     0   101  0.0000000000e+00  0.0000000000e+00 -2.5014294642e+02  2.5014294642e+02  0.0000000000e+00 0. 9.
      -24     2     1     2     0     0  3.0014728149e+00 -1.6235636773e+01 -2.0880101359e+02  2.2465450499e+02  8.1235328491e+01 0. 9.
       24     2     1     2     0     0 -3.0014728149e+00  1.6235636773e+01  1.6092914681e+01  8.2923288935e+01  7.9653532278e+01 0. 9.
        3     1     3     0   102     0  3.4158405635e+01  1.5526511944e+01 -7.9664555101e+01  8.8059982899e+01  5.0000000000e-01 0. 9.
       -4     1     3     0     0   102 -3.1156932820e+01 -3.1762148717e+01 -1.2913645849e+02  1.3659452209e+02  1.5000000000e+00 0. 9.
       -3     1     4     0     0   103 -4.0701465828e+01  1.2478480967e+00  7.0235580001e+00  4.1324893375e+01  5.0000000000e-01 0. 9.
        4     1     4     0   103     0  3.7699993013e+01  1.4987788677e+01  9.0693566812e+00  4.1598395561e+01  1.5000000000e+00 0. 9.
#pdf    2   -2  5.860699e-02  2.552479e-01  8.134673e+01  5.745392e-01  4.117608e-01
</event>
<event>
     8  9999  1.000000e+00  8.287116e+01  7.809044e-03  1.371608e-01
        2    -1     0     0   101     0  0.0000000000e+00  0.0000000000e+00  3.4875357130e+02  3.4875357130e+02  0.0000000000e+00 0. 9.
       -1    -1     0     0     0   101  0.0000000000e+00  0.0000000000e+00 -4.7902840342e+01  4.7902840342e+01  0.0000000000e+00 0. 9.
       23     2     1     2     0     0  1.7597183516e+01  1.9546379338e+01 -2.8473234341e+00  8.1459877064e+01  7.7044678646e+01 0. 9.
       24     2     1     2     0     0 -1.7597183516e+01 -1.9546379338e+01  3.0369805439e+02  3.1519653458e+02  8.0153760706e+01 0. 9.
        3     1     3     0   102     0  3.6038676661e+01 -7.0604915865e+00  2.0012910801e+01  4.1825869455e+01  5.0000000000e-01 0. 9.
       -3     1     3     0     0   102 -1.8441493145e+01  2.6606870925e+01 -2.2860234235e+01  3.9634007609e+01  5.0000000000e-01 0. 9.
      -11     1     4     0     0     0 -4.0726931599e+01  1.4170746002e+01  1.7016071900e+02  1.7553963453e+02  5.1100000000e-04 0. 9.
       12     1     4     0     0     0  2.3129748083e+01 -3.3717125341e+01  1.3353733539e+02  1.3965690005e+02  0.0000000000e+00 0. 9.
#pdf    2   -1  3.558710e-01  4.888045e-02  8.141010e+01  2.790422e-01  4.095152e-01
</event>
<event>
     8  9999  1.000000e+00  8.700145e+01  7.813347e-03  1.360533e-01
        2    -1     0     0   101     0  0.0000000000e+00  0.0000000000e+00  3.2764842730e+01  3.2764842730e+01  0.0000000000e+00 0. 9.
       -2    -1     0     0     0   101  0.0000000000e+00  0.0000000000e+00 -3.6488415976e+02  3.6488415976e+02  0.0000000000e+00 0. 9.
      -24     2     1     2     0     0 -3.3463497044e+01  1.4188799220e+01 -2.8910192311e+02  3.0257090578e+02  8.1535902647e+01 0. 9.
       24     2     1     2     0     0  3.3463497044e+01 -1.4188799220e+01 -4.3017393924e+01  9.5078096715e+01  7.6604312131e+01 0. 9.
        3     1     3     0   102     0 -3.7648517949e+01  4.4675983790e+01 -1.9327184830e+02  2.0190991005e+02  5.0000000000e-01 0. 9.
       -4     1     3     0     0   102  4.1850209052e+00 -3.0487184570e+01 -9.5830074807e+01  1.0066099573e+02  1.5000000000e+00 0. 9.
       -1     1     4     0     0   103  1.7013271244e+01 -3.3913365385e+01 -5.4932718766e+01  6.6762865736e+01  3.3000000000e-01 0. 9.
        2     1     4     0   103     0  1.6450225800e+01  1.9724566166e+01  1.1915324842e+01  2.8315230979e+01  3.3000000000e-01 0. 9.
#pdf    2   -2  3.343351e-02  3.723308e-01  8.479002e+01  5.913448e-01  2.570431e-01
</event>
<event>
     8  9999  1.000000e+00  8.664120e+01  7.812980e-03  1.361471e-01
        1    -1     0     0   101     0  0.0000000000e+00  0.0000000000e+00  2.9964544114e+02  2.9964544114e+02  0.0000000000e+00 0. 9.
       -1    -1     0     0     0   101  0.0000000000e+00  0.0000000000e+00 -1.1311950452e+02  1.1311950452e+02  0.0000000000e+00 0. 9.
      -24     2     1     2     0     0 -4.2399467120e+01 -7.3170735960e+00  2.7698157025e+02  2.9306743733e+02  8.5548104517e+01 0. 9.
       24     2     1     2     0     0  4.2399467120e+01  7.3170735960e+00 -9.0455633635e+01  1.1969750834e+02  6.5528752981e+01 0. 9.
        3     1     3     0   102     0 -3.6180040404e+01 -4.3125559891e+01  2.0247874739e+02  2.1015875520e+02  5.0000000000e-01 0. 9.
       -4     1     3     0     0   102 -6.2194267161e+00  3.5808486295e+01  7.4502822853e+01  8.2908682130e+01  1.5000000000e+00 0. 9.
      -13     1     4     0     0     0  1.8452172405e+01  3.3773285024e+01 -6.6119374262e+01  7.6504249977e+01  1.0566000000e-01  3.105679e+05 9.
       14     1     4     0     0     0  2.3947294716e+01 -2.6456211428e+01 -2.4336259373e+01  4.3193258358e+01  0.0000000000e+00 0. 9.
#pdf    1   -1  3.057607e-01  1.154281e-01  7.839178e+01  1.351598e-01  3.210394e-01
</event>
<event>
     8  9999  1.000000e+00  1.095129e+02  7.833771e-03  1.310470e-01
        1    -1     0     0   101     0  0.0000000000e+00  0.0000000000e+00  1.9111854741e+02  1.9111854741e+02  0.0000000000e+00 0. 9.
       -1    -1     0     0     0   101  0.0000000000e+00  0.0000000000e+00 -7.6255336138e+01  7.6255336138e+01  0.0000000000e+00 0. 9.
      -24     2     1     2     0     0  3.7329834748e+01 -6.4679864183e+01  1.1374568907e+02  1.5798893938e+02  8.0283384283e+01 0. 9.
       24     2     1     2     0     0 -3.7329834748e+01  6.4679864183e+01  1.1175222017e+00  1.0938494417e+02  7.9917556026e+01 0. 9.
       11     1     3     0     0     0  5.0454528376e+01 -7.6414475568e+00  4.9830318185e+01  7.1323991511e+01  5.1100000000e-04 0. 9.
      -12     1     3     0     0     0 -1.3124693628e+01 -5.7038416626e+01  6.3915370881e+01  8.6664947868e+01  0.0000000000e+00 0. 9.
      -15     1     4     0     0     0  9.5651298106e-01 -8.0790052457e+00 -2.2377264174e+01  2.3876450495e+01  1.7769900000e+00  4.067650e-01 9.
       16     1     4     0     0     0 -3.8286347729e+01  7.2758869429e+01  2.3494786376e+01  8.5508493671e+01  0.0000000000e+00 0. 9.
#pdf    1   -1  1.950189e-01  7.781157e-02  1.093792e+02  2.290681e-01  3.631430e-01
</event>
<event>
     8  9999  1.000000e+00  8.829162e+01  7.814651e-03  1.357216e-01
        2    -1     0     0   101     0  0.0000000000e+00  0.0000000000e+00  5.2616792707e+01  5.2616792707e+01  0.0000000000e+00 0. 9.
       -2    -1     0     0     0   101  0.0000000000e+00  0.0000000000e+00 -1.5650705059e+02  1.5650705059e+02  0.0000000000e+00 0. 9.
      -24     2     1     2     0     0 -3.6722718029e+01 -7.7954662169e+00 -7.6478281613e+01  1.1734378333e+02  8.0692680053e+01 0. 9.
       24     2     1     2     0     0  3.6722718029e+01  7.7954662169e+00 -2.7411976267e+01  9.1780059966e+01  7.9138079655e+01 0. 9.
        1     1     3     0   102     0  2.7148180208e+00 -1.3921358347e+01  1.3078570142e+01  1.9295915424e+01  3.3000000000e-01 0. 9.
       -2     1     3     0     0   102 -3.9437536050e+01  6.1258921299e+00 -8.9556851755e+01  9.8047867903e+01  3.3000000000e-01 0. 9.
       -3     1     4     0     0   103  1.4073190471e+00  3.4668151076e+00 -4.9651516455e+01  4.9794803345e+01  5.0000000000e-01 0. 9.
        4     1     4     0   103     0  3.5315398982e+01  4.3286511094e+00  2.2239540189e+01  4.1985256620e+01  1.5000000000e+00 0. 9.
#pdf    2   -2  5.369060e-02  1.597011e-01  8.759088e+01  5.764902e-01  5.192866e-01
</event>
<event>
     8  9999  1.000000e+00  9.996355e+01  7.825661e-03  1.329872e-01
        1    -1     0     0   101     0  0.0000000000e+00  0.0000000000e+00  7.8935673874e+01  7.8935673874e+01  0.0000000000e+00 0. 9.
       -1    -1     0     0     0   101  0.0000000000e+00  0.0000000000e+00 -1.6148247727e+02  1.6148247727e+02  0.0000000000e+00 0. 9.
       23     2     1     2     0     0 -1.2082718686e+01 -3.9902631200e+01 -9.6994604878e+01  1.3895139352e+02  9.0340048248e+01 0. 9.
       23     2     1     2     0     0  1.2082718686e+01  3.9902631200e+01  1.4447801487e+01  1.0146675762e+02  9.1370410238e+01 0. 9.
        1     1     3     0   102     0 -1.7885015603e+01  1.8211929426e+01  2.3522180451e-01  2.5528658129e+01  3.3000000000e-01 0. 9.
       -1     1     3     0     0   102  5.8022969169e+00 -5.8114560627e+01 -9.7229826683e+01  1.1342273539e+02  3.3000000000e-01 0. 9.
        1     1     4     0   103     0 -1.2278254693e+01  5.9362111182e+01  2.8833534333e+01  6.7127471161e+01  3.3000000000e-01 0. 9.
       -1     1     4     0     0   103  2.4360973379e+01 -1.9459479982e+01 -1.4385732846e+01  3.4339286461e+01  3.3000000000e-01 0. 9.
#pdf    1   -1  8.054661e-02  1.647780e-01  9.949641e+01  3.603515e-01  2.624655e-01
</event>
<event>
     8  9999  1.000000e+00  1.247395e+02  7.845372e-03  1.283747e-01
        2    -1     0     0   101     0  0.0000000000e+00  0.0000000000e+00  7.2927790933e+01  7.2927790933e+01  0.0000000000e+00 0. 9.
       -2    -1     0     0     0   101  0.0000000000e+00  0.0000000000e+00 -2.3191142722e+02  2.3191142722e+02  0.0000000000e+00 0. 9.
       23     2     1     2     0     0  8.0981370503e+01 -3.7577140407e+00 -3.6822595182e+01  1.3076550299e+02  9.5768525478e+01 0. 9.
       23     2     1     2     0     0 -8.0981370503e+01  3.7577140407e+00 -1.2216104110e+02  1.7407371516e+02  9.3841544979e+01 0. 9.
        3     1     3     0   104     0 -8.1605506346e+00  3.3916932566e+00 -4.0307628748e+01  4.1268063986e+01  5.0000000000e-01 0. 9.
       -3     1     3     0     0   104  8.9141921138e+01 -7.1494072974e+00  3.4850335661e+00  8.9497439002e+01  5.0000000000e-01 0. 9.
       11     1     4     0     0     0 -8.0261609074e+01 -4.6699836669e-01 -3.6272959707e+01  8.8078780559e+01  5.1100000000e-04 0. 9.
      -11     1     4     0     0     0 -7.1976142912e-01  4.2247124074e+00 -8.5888081395e+01  8.5994934603e+01  5.1100000000e-04 0. 9.
#pdf    2   -2  7.441611e-02  2.366443e-01  1.240094e+02  5.678753e-01  4.215664e-01
</event>
<event>
     8  9999  1.000000e+00  8.389645e+01  7.810132e-03  1.368791e-01
        2    -1     0     0   101     0  0.0000000000e+00  0.0000000000e+00  2.5436344402e+01  2.5436344402e+01  0.0000000000e+00 0. 9.
       -2    -1     0     0     0   101  0.0000000000e+00  0.0000000000e+00 -3.1527052637e+02  3.1527052637e+02  0.0000000000e+00 0. 9.
      -24     2     1     2     0     0 -2.0122775618e+01 -1.6205364999e+01 -2.0397936064e+02  2.2043198408e+02  7.9467855685e+01 0. 9.
       24     2     1     2     0     0  2.0122775618e+01  1.6205364999e+01 -8.5854821332e+01  1.2027488669e+02  8.0171429257e+01 0. 9.
        3     1     3     0   102     0  2.7111165418e+01 -1.4510561032e+01 -1.2175824072e+02  1.2558220756e+02  5.0000000000e-01 0. 9.
       -4     1     3     0     0   102 -4.7233941036e+01 -1.6948039670e+00 -8.2221119913e+01  9.4849776521e+01  1.5000000000e+00 0. 9.
       -3     1     4     0     0   103 -2.1662101087e+01  3.2735699319e+01 -4.1108228459e+01  5.6841965839e+01  5.0000000000e-01 0. 9.
        4     1     4     0   103     0  4.1784876705e+01 -1.6530334320e+01 -4.4746592873e+01  6.3432920851e+01  1.5000000000e+00 0. 9.
#pdf    2   -2  2.595545e-02  3.217046e-01  8.356243e+01  6.053936e-01  3.225059e-01
</event>
<event>
     8  9999  1.000000e+00  8.139367e+01  7.807454e-03  1.375750e-01
        1    -1     0     0   101     0  0.0000000000e+00  0.0000000000e+00  4.2393042795e+01  4.2393042795e+01  0.0000000000e+00 0. 9.
       -1    -1     0     0     0   101  0.0000000000e+00  0.0000000000e+00 -2.6013118116e+02  2.6013118116e+02  0.0000000000e+00 0. 9.
      -24     2     1     2     0     0 -8.4319848789e+00 -3.2326700022e+01 -2.0038775169e+02  2.1463274711e+02  6.9252084445e+01 0. 9.
       24     2     1     2     0     0  8.4319848789e+00  3.2326700022e+01 -1.7350386673e+01  8.7891476847e+01  7.9421419537e+01 0. 9.
        3     1     3     0   102     0  2.0347380331e+01  1.0549071092e+01 -8.8199507695e+01  9.1130137413e+01  5.0000000000e-01 0. 9.
       -2     1     3     0     0   102 -2.8779365210e+01 -4.2875771115e+01 -1.1218824400e+02  1.2350260970e+02  3.3000000000e-01 0. 9.
       -3     1     4     0     0   103  1.6695796368e+01  3.0248008738e+01 -4.6245610937e+01  5.7728659952e+01  5.0000000000e-01 0. 9.
        4     1     4     0   103     0 -8.2638114892e+00  2.0786912847e+00  2.8895224264e+01  3.0162816895e+01  1.5000000000e+00 0. 9.
#pdf    1   -1  4.325821e-02  2.654400e-01  7.688930e+01  4.208556e-01  1.688370e-01
</event>
<event>
     8  9999  1.000000e+00  8.881269e+01  7.815172e-03  1.355895e-01
        2    -1     0     0   101     0  0.0000000000e+00  0.0000000000e+00  5.3648365854e+02  5.3648365854e+02  0.0000000000e+00 0. 9.
       -1    -1     0     0     0   101  0.0000000000e+00  0.0000000000e+00 -2.1522171369e+01  2.1522171369e+01  0.0000000000e+00 0. 9.
       23     2     1     2     0     0 -1.4798795568e+01  1.7820784716e+01  1.1104989495e+02  1.4546130171e+02  9.1051229585e+01 0. 9.
       24     2     1     2     0     0  1.4798795568e+01 -1.7820784716e+01  4.0391159222e+02  4.1254452820e+02  8.0695902600e+01 0. 9.
        2     1     3     0   102     0  3.7108016718e+01  1.1871891080e+01  6.5169527450e+01  7.5928406480e+01  3.3000000000e-01 0. 9.
       -2     1     3     0     0   102 -5.1906812287e+01  5.9488936364e+00  4.5880367500e+01  6.9532895231e+01  3.3000000000e-01 0. 9.
       -3     1     4     0     0   103  9.4347361087e+00 -4.5605272428e+01  1.5019220843e+02  1.5724759010e+02  5.0000000000e-01 0. 9.
        4     1     4     0   103     0  5.3640594596e+00  2.7784487712e+01  2.5371938379e+02  2.5529693809e+02  1.5000000000e+00 0. 9.
#pdf    2   -1  5.474323e-01  2.196140e-02  8.395483e+01  8.776759e-02  4.959193e-01
</event>
<event>
     8  9999  1.000000e+00  9.490373e+01  7.821051e-03  1.341176e-01
        2    -1     0     0   101     0  0.0000000000e+00  0.0000000000e+00  1.3799831261e+02  1.3799831261e+02  0.0000000000e+00 0. 9.
       -2    -1     0     0     0   101  0.0000000000e+00  0.0000000000e+00 -2.4253204596e+02  2.4253204596e+02  0.0000000000e+00 0. 9.
      -24     2     1     2     0     0 -3.0949308899e+01 -3.8299159472e+01 -2.1492214896e+02  2.3492443639e+02  8.1075738407e+01 0. 9.
       24     2     1     2     0     0  3.0949308899e+01  3.8299159472e+01  1.1038841561e+02  1.4560592218e+02  8.1183723330e+01 0. 9.
        1     1     3     0   102     0  6.6361811338e-02  2.0370531710e+01 -1.0140737236e+02  1.0343368424e+02  3.3000000000e-01 0. 9.
       -2     1     3     0     0   102 -3.1015670710e+01 -5.8669691181e+01 -1.1351477660e+02  1.3149075215e+02  3.3000000000e-01 0. 9.
       -3     1     4     0     0   103 -2.1856323084e+01 -8.6931886199e+00  3.5741840802e+01  4.2790180779e+01  5.0000000000e-01 0. 9.
        4     1     4     0   103     0  5.2805631983e+01  4.6992348092e+01  7.4646574812e+01  1.0281574140e+02  1.5000000000e+00 0. 9.
#pdf    2   -2  1.408146e-01  2.474817e-01  9.485758e+01  5.335483e-01  4.164709e-01
</event>
<event>
     8  9999  1.000000e+00  1.045379e+02  7.829636e-03  1.320286e-01
        1    -1     0     0   101     0  0.0000000000e+00  0.0000000000e+00  1.6527970944e+02  1.6527970944e+02  0.0000000000e+00 0. 9.
       -2    -1     0     0     0   101  0.0000000000e+00  0.0000000000e+00 -7.4969761975e+01  7.4969761975e+01  0.0000000000e+00 0. 9.
       23     2     1     2     0     0  4.9570040850e+01 -3.0761460671e+01  4.9420361433e+00  1.0720300029e+02  8.9803135452e+01 0. 9.
      -24     2     1     2     0     0 -4.9570040850e+01  3.0761460671e+01  8.5367911317e+01  1.3304647112e+02  8.3727097066e+01 0. 9.
        3     1     3     0   102     0  4.2179863467e+01 -2.2061759893e+01  4.5024751161e+01  6.5523586202e+01  5.0000000000e-01 0. 9.
       -3     1     3     0     0   102  7.3901773831e+00 -8.6997007775e+00 -4.0082715018e+01  4.1679414086e+01  5.0000000000e-01 0. 9.
       13     1     4     0     0     0 -4.7635300960e+01  5.6665073455e+01  5.0692345301e+01  8.9720552179e+01  1.0566000000e-01  4.735569e+05 9.
      -14     1     4     0     0     0 -1.9347398897e+00 -2.5903612784e+01  3.4675566017e+01  4.3325918943e+01  0.0000000000e+00 0. 9.
#pdf    1   -2  1.686528e-01  7.649976e-02  1.020475e+02  2.578659e-01  5.681476e-01
</event>
<event>
     8  9999  1.000000e+00  1.120500e+02  7.835809e-03  1.305689e-01
        1    -1     0     0   101     0  0.0000000000e+00  0.0000000000e+00  1.1718970657e+02  1.1718970657e+02  0.0000000000e+00 0. 9.
       -1    -1     0     0     0   101  0.0000000000e+00  0.0000000000e+00 -3.4623455327e+02  3.4623455327e+02  0.0000000000e+00 0. 9.
      -24     2     1     2     0     0 -9.8253816188e+00  7.7267207889e+01  7.8037516604e+01  1.3653118610e+02  8.0524227673e+01 0. 9.
       24     2     1     2     0     0  9.8253816188e+00 -7.7267207889e+01 -3.0708236330e+02  3.2689307374e+02  8.0577566784e+01 0. 9.
       15     1     3     0     0     0  2.3999414009e+01  4.9970258577e+00  4.2686743704e+01  4.9257059613e+01  1.7769900000e+00  6.488052e-02 9.
      -16     1     3     0     0     0 -3.3824795628e+01  7.2270182031e+01  3.5350772901e+01  8.7274126491e+01  0.0000000000e+00 0. 9.
       -3     1     4     0     0   102 -3.1198723375e+01 -5.8778834908e+01 -1.6777974988e+02  1.8049544660e+02  5.0000000000e-01 0. 9.
        4     1     4     0   102     0  4.1024104994e+01 -1.8488372981e+01 -1.3930261343e+02  1.4639762714e+02  1.5000000000e+00 0. 9.
#pdf    1   -1  1.195813e-01  3.533006e-01  1.120308e+02  3.110804e-01  9.611763e-02
</event>
<event>
     8  9999  1.000000e+00  1.044457e+02  7.829557e-03  1.320473e-01
        1    -1     0     0   101     0  0.0000000000e+00  0.0000000000e+00  7.5413509858e+01  7.5413509858e+01  0.0000000000e+00 0. 9.
       -1    -1     0     0     0   101  0.0000000000e+00  0.0000000000e+00 -1.4794082676e+02  1.4794082676e+02  0.0000000000e+00 0. 9.
       23     2     1     2     0     0 -1.0487607126e+01  3.0570642704e+01 -2.0044428172e+01  1.0746194630e+02  1.0050739626e+02 0. 9.
       23     2     1     2     0     0  1.0487607126e+01 -3.0570642704e+01 -5.2482888733e+01  1.1589239032e+02  9.8142948932e+01 0. 9.
       15     1     3     0     0     0  1.1220621352e+01  4.0615010227e+01  3.0142306234e+01  5.1838187833e+01  1.7769900000e+00  1.665527e-01 9.
      -15     1     3     0     0     0 -2.1708228478e+01 -1.0044367522e+01 -5.0186734406e+01  5.5623758470e+01  1.7769900000e+00  9.377265e-02 9.
       11     1     4     0     0     0 -2.0977075458e+01 -5.6678879323e+01 -4.2265838993e+01  7.3749130179e+01  5.1100000000e-04 0. 9.
      -11     1     4     0     0     0  3.1464682584e+01  2.6108236618e+01 -1.0217049739e+01  4.2143260138e+01  5.1100000000e-04 0. 9.
#pdf    1   -1  7.695256e-02  1.509600e-01  1.033276e+02  3.647925e-01  2.768383e-01
</event>
<event>
     8  9999  1.000000e+00  9.897542e+01  7.824779e-03  1.332019e-01
        2    -1     0     0   101     0  0.0000000000e+00  0.0000000000e+00  1.5946495691e+02  1.5946495691e+02  0.0000000000e+00 0. 9.
       -2    -1     0     0     0   101  0.0000000000e+00  0.0000000000e+00 -8.1150127529e+01  8.1150127529e+01  0.0000000000e+00 0. 9.
      -24     2     1     2     0     0 -5.3172207986e+01 -1.2037497948e+01  9.7937193906e+01  1.3808436565e+02  8.0643741406e+01 0. 9.
       24     2     1     2     0     0  5.3172207986e+01  1.2037497948e+01 -1.9622364524e+01  1.0253071879e+02  8.4589160339e+01 0. 9.
        3     1     3     0   102     0 -1.0080387005e+01  3.2930608086e+01  2.7706391799e+01  4.4203317721e+01  5.0000000000e-01 0. 9.
       -4     1     3     0     0   102 -4.3091820981e+01 -4.4968106033e+01  7.0230802107e+01  9.3881047930e+01  1.5000000000e+00 0. 9.
       -3     1     4     0     0   103  6.6892245260e+01 -1.0786781789e+01  2.6082822986e+00  6.7808408577e+01  5.0000000000e-01 0. 9.
        4     1     4     0   103     0 -1.3720037273e+01  2.2824279736e+01 -2.2230646823e+01  3.4722310212e+01  1.5000000000e+00 0. 9.
#pdf    2   -2  1.627193e-01  8.280625e-02  9.734268e+01  5.137999e-01  5.662132e-01
</event>
<event>
     8  9999  1.000000e+00  1.269697e+02  7.846954e-03  1.280193e-01
        1    -1     0     0   101     0  0.0000000000e+00  0.0000000000e+00  1.8297263748e+02  1.8297263748e+02  0.0000000000e+00 0. 9.
       -1    -1     0     0     0   101  0.0000000000e+00  0.0000000000e+00 -2.7755792591e+02  2.7755792591e+02  0.0000000000e+00 0. 9.
       23     2     1     2     0     0 -4.7835152703e+01  7.4777981858e+01 -2.3753378006e+02  2.6934853327e+02  9.0809621212e+01 0. 9.
       23     2     1     2     0     0  4.7835152703e+01 -7.4777981858e+01  1.4294849162e+02  1.9118203011e+02  9.0754333089e+01 0. 9.
        4     1     3     0   102     0  1.7179305932e+01  5.0783919585e+01 -7.1120308685e+01  8.9075716939e+01  1.5000000000e+00 0. 9.
       -4     1     3     0     0   102 -6.5014458634e+01  2.3994062273e+01 -1.6641347137e+02  1.8027281633e+02  1.5000000000e+00 0. 9.
        3     1     4     0   103     0  5.6891549522e+01 -5.7894858220e+01  1.5016811753e+02  1.7070201094e+02  5.0000000000e-01 0. 9.
       -3     1     4     0     0   103 -9.0563968190e+00 -1.6883123638e+01 -7.2196259057e+00  2.0480019173e+01  5.0000000000e-01 0. 9.
#pdf    1   -1  1.867068e-01  2.832224e-01  1.269500e+02  2.349853e-01  1.451204e-01
</event>
<event>
     8  9999  1.000000e+00  1.133167e+02  7.836810e-03  1.303355e-01
        1    -1     0     0   101     0  0.0000000000e+00  0.0000000000e+00  1.0278739718e+02  1.0278739718e+02  0.0000000000e+00 0. 9.
       -1    -1     0     0     0   101  0.0000000000e+00  0.0000000000e+00 -3.5177069169e+02  3.5177069169e+02  0.0000000000e+00 0. 9.
      -24     2     1     2     0     0 -7.7648960963e+01  2.3417080779e+01  5.8517785535e+01  1.2638848353e+02  7.7278695209e+01 0. 9.
       24     2     1     2     0     0  7.7648960963e+01 -2.3417080779e+01 -3.0750108004e+02  3.2816960535e+02  8.0997869329e+01 0. 9.
        3     1     3     0   102     0 -8.1873402508e+01  2.7183534653e+01  7.1564018480e+01  1.1208861376e+02  5.0000000000e-01 0. 9.
       -4     1     3     0     0   102  4.2244415446e+00 -3.7664538743e+00 -1.3046232945e+01  1.4299869762e+01  1.5000000000e+00 0. 9.
      -13     1     4     0     0     0  4.3811211130e+01 -2.9826721789e+01 -2.7743618148e+02  2.8245336166e+02  1.0566000000e-01  2.987747e+05 9.
       14     1     4     0     0     0  3.3837749833e+01  6.4096410101e+00 -3.0064898565e+01  4.5716243692e+01  0.0000000000e+00 0. 9.
#pdf    1   -1  1.048851e-01  3.589497e-01  1.120255e+02  3.285173e-01  9.256400e-02
</event>
<event>
     8  9999  1.000000e+00  8.443675e+01  7.810700e-03  1.367325e-01
        1    -1     0     0   101     0  0.0000000000e+00  0.0000000000e+00  2.2493774450e+02  2.2493774450e+02  0.0000000000e+00 0. 9.
       -1    -1     0     0     0   101  0.0000000000e+00  0.0000000000e+00 -4.0702926549e+01  4.0702926549e+01  0.0000000000e+00 0. 9.
      -24     2     1     2     0     0  4.0841576378e+00 -2.5861387519e+01  1.5408837550e+02  1.7542365170e+02  7.9653866222e+01 0. 9.
       24     2     1     2     0     0 -4.0841576378e+00  2.5861387519e+01  3.0146442450e+01  9.0217019348e+01  8.0900005436e+01 0. 9.
       15     1     3     0     0     0  1.6947361750e+01 -5.1658657879e+01  9.0197087487e+01  1.0533044331e+02  1.7769900000e+00  7.495502e-02 9.
      -16     1     3     0     0     0 -1.2863204112e+01  2.5797270360e+01  6.3891288016e+01  7.0093208390e+01  0.0000000000e+00 0. 9.
      -11     1     4     0     0     0 -1.5316720631e+01 -1.7979680949e+01 -1.3615060123e+01  2.7262441569e+01  5.1100000000e-04 0. 9.
       12     1     4     0     0     0  1.1232562993e+01  4.3841068468e+01  4.3761502573e+01  6.2954577778e+01  0.0000000000e+00 0. 9.
#pdf    1   -1  2.295283e-01  4.153360e-02  8.384647e+01  1.999929e-01  4.248798e-01
</event>
<event>
     8  9999  1.000000e+00  9.455083e+01  7.820720e-03  1.341994e-01
        1    -1     0     0   101     0  0.0000000000e+00  0.0000000000e+00  1.5272587745e+02  1.5272587745e+02  0.0000000000e+00 0. 9.
       -4    -1     0     0     0   101  0.0000000000e+00  0.0000000000e+00 -1.3832663082e+02  1.3832663082e+02  0.0000000000e+00 0. 9.
       23     2     1     2     0     0 -4.1229511338e+01 -2.5285467356e+00  1.1770772382e+02  1.5426159033e+02  9.0748354531e+01 0. 9.
      -24     2     1     2     0     0  4.1229511338e+01  2.5285467356e+00 -1.0330847718e+02  1.3679091794e+02  7.9579190863e+01 0. 9.
        4     1     3     0   102     0 -4.5653785940e+00  5.8715966570e-01  1.1733300924e+02  1.1743284249e+02  1.5000000000e+00 0. 9.
       -4     1     3     0     0   102 -3.6664132744e+01 -3.1157064013e+00  3.7471457928e-01  3.6828747837e+01  1.5000000000e+00 0. 9.
       11     1     4     0     0     0  1.1069938154e+01 -1.2299764748e+00  1.2685469492e+01  1.6881276887e+01  5.1100000000e-04 0. 9.
      -12     1     4     0     0     0  3.0159573184e+01  3.7585232104e+00 -1.1599394668e+02  1.1990964105e+02  0.0000000000e+00 0. 9.
#pdf    1   -4  1.558427e-01  1.411496e-01  8.966111e+01  2.739402e-01  1.660937e-02
</event>
<event>
     8  9999  1.000000e+00  1.102707e+02  7.834384e-03  1.309027e-01
        2    -1     0     0   101     0  0.0000000000e+00  0.0000000000e+00  4.0161482054e+01  4.0161482054e+01  0.0000000000e+00 0. 9.
       -2    -1     0     0     0   101  0.0000000000e+00  0.0000000000e+00 -3.0410354619e+02  3.0410354619e+02  0.0000000000e+00 0. 9.
      -24     2     1     2     0     0  2.5579152662e+01 -7.1325932918e+01 -1.2034380323e+02  1.6309690104e+02  7.9851652423e+01 0. 9.
       24     2     1     2     0     0 -2.5579152662e+01  7.1325932918e+01 -1.4359826091e+02  1.8116812721e+02  8.0372557649e+01 0. 9.
        3     1     3     0   102     0 -1.7800244161e+01  7.8258583462e+00 -2.6621899136e+01  3.2970718291e+01  5.0000000000e-01 0. 9.
       -4     1     3     0     0   102  4.3379396824e+01 -7.9151791264e+01 -9.3721904096e+01  1.3012618275e+02  1.5000000000e+00 0. 9.
       -3     1     4     0     0   103  2.2343162208e+01 -1.4204237271e+00 -3.9641690118e+01  4.5529639757e+01  5.0000000000e-01 0. 9.
        4     1     4     0   103     0 -4.7922314871e+01  7.2746356645e+01 -1.0395657079e+02  1.3563848745e+02  1.5000000000e+00 0. 9.
#pdf    2   -2  4.098110e-02  3.103097e-01  1.100816e+02  5.854291e-01  3.279747e-01
</event>
<event>
     8  9999  1.000000e+00  8.197793e+01  7.808086e-03  1.374100e-01
        2    -1     0     0   101     0  0.0000000000e+00  0.0000000000e+00  6.7880118261e+01  6.7880118261e+01  0.0000000000e+00 0. 9.
       -2    -1     0     0     0   101  0.0000000000e+00  0.0000000000e+00 -1.1683749394e+02  1.1683749394e+02  0.0000000000e+00 0. 9.
      -24     2     1     2     0     0 -1.3399673724e+01  3.0598820737e+00 -6.0421216473e+01  1.0140763594e+02  8.0273726045e+01 0. 9.
       24     2     1     2     0     0  1.3399673724e+01 -3.0598820737e+00  1.1463840793e+01  8.3309976259e+01  8.1364724324e+01 0. 9.
        1     1     3     0   102     0 -8.5241507181e+00 -3.0959768008e+01 -5.8803255019e+01  6.7000746872e+01  3.3000000000e-01 0. 9.
       -2     1     3     0     0   102 -4.8755230055e+00  3.4019650081e+01 -1.6179614537e+00  3.4406889070e+01  3.3000000000e-01 0. 9.
       -1     1     4     0     0   103 -1.8337361260e+01  1.8855099373e+00 -2.7315123260e+01  3.2955103161e+01  3.3000000000e-01 0. 9.
        2     1     4     0   103     0  3.1737034983e+01 -4.9453920110e+00  3.8778964053e+01  5.0354873098e+01  3.3000000000e-01 0. 9.
#pdf    2   -2  6.926543e-02  1.192219e-01  8.144191e+01  5.714473e-01  5.514241e-01
</event>
<event>
     8  9999  1.000000e+00  1.462853e+02  7.859618e-03  1.252488e-01
        2    -1     0     0   101     0  0.0000000000e+00  0.0000000000e+00  1.6884686650e+02  1.6884686650e+02  0.0000000000e+00 0. 9.
       -1    -1     0     0     0   101  0.0000000000e+00  0.0000000000e+00 -2.2435086418e+02  2.2435086418e+02  0.0000000000e+00 0. 9.
       23     2     1     2     0     0  6.9205240473e-01  1.1810611789e+02 -1.5773114773e+02  2.1748691763e+02  9.2042981029e+01 0. 9.
       24     2     1     2     0     0 -6.9205240473e-01 -1.1810611789e+02  1.0222715004e+02  1.7571081305e+02  8.0463442610e+01 0. 9.
        1     1     3     0   102     0 -1.7178599832e+01 -2.5758916398e+00  8.6588651727e-01  1.7395349074e+01  3.3000000000e-01 0. 9.
       -1     1     3     0     0   102  1.7870652237e+01  1.2068200953e+02 -1.5859703424e+02  2.0009156855e+02  3.3000000000e-01 0. 9.
       -1     1     4     0     0   103  2.9781444456e+01 -1.5894016465e+01  3.9553235281e+01  5.2001168395e+01  3.3000000000e-01 0. 9.
        2     1     4     0   103     0 -3.0473496860e+01 -1.0221210143e+02  6.2673914762e+01  1.2370964465e+02  3.3000000000e-01 0. 9.
#pdf    2   -1  1.722927e-01  2.289295e-01  1.429122e+02  4.943023e-01  1.909438e-01
</event>
<event>
     8  9999  1.000000e+00  7.885716e+01  7.804657e-03  1.383101e-01
        1    -1     0     0   101     0  0.0000000000e+00  0.0000000000e+00  4.8923465806e+01  4.8923465806e+01  0.0000000000e+00 0. 9.
       -1    -1     0     0     0   101  0.0000000000e+00  0.0000000000e+00 -1.6196782850e+02  1.6196782850e+02  0.0000000000e+00 0. 9.
      -24     2     1     2     0     0  7.8392985807e+00 -7.8437862895e+00 -6.3884261663e+00  7.6834238714e+01  7.5760864992e+01 0. 9.
       24     2     1     2     0     0 -7.8392985807e+00  7.8437862895e+00 -1.0665593653e+02  1.3405705559e+02  8.0453873565e+01 0. 9.
        1     1     3     0   102     0  1.8843594983e+01 -1.3972984295e+01  3.0139243154e+01  3.8194348271e+01  3.3000000000e-01 0. 9.
       -2     1     3     0     0   102 -1.1004296402e+01  6.1291980058e+00 -3.6527669320e+01  3.8639890443e+01  3.3000000000e-01 0. 9.
       -1     1     4     0     0   103 -3.2729186180e+01  3.2427677560e+01 -6.4690123690e+01  7.9420871960e+01  3.3000000000e-01 0. 9.
        2     1     4     0   103     0  2.4889887599e+01 -2.4583891270e+01 -4.1965812835e+01  5.4636183630e+01  3.3000000000e-01 0. 9.
#pdf    1   -1  4.992190e-02  1.652733e-01  7.656819e+01  4.076249e-01  2.666672e-01
</event>
<event>
     8  9999  1.000000e+00  1.093557e+02  7.833643e-03  1.310772e-01
        1    -1     0     0   101     0  0.0000000000e+00  0.0000000000e+00  1.1298850516e+02  1.1298850516e+02  0.0000000000e+00 0. 9.
       -1    -1     0     0     0   101  0.0000000000e+00  0.0000000000e+00 -1.8746165609e+02  1.8746165609e+02  0.0000000000e+00 0. 9.
      -24     2     1     2     0     0 -7.6237528156e+01 -2.5659996579e+00  6.1767449749e+01  1.2613704441e+02  7.9224939706e+01 0. 9.
       24     2     1     2     0     0  7.6237528156e+01  2.5659996579e+00 -1.3624060067e+02  1.7431311683e+02  7.7490750255e+01 0. 9.
       11     1     3     0     0     0 -8.3442394061e+01 -2.2068501957e+01  6.0311268364e+01  1.0529530378e+02  5.1100000000e-04 0. 9.
      -12     1     3     0     0     0  7.2048659047e+00  1.9502502299e+01  1.4561813849e+00  2.0841740639e+01  0.0000000000e+00 0. 9.
      -13     1     4     0     0     0  5.1602415756e+01  2.9308199862e+01 -1.2123151170e+02  1.3497729618e+02  1.0566000000e-01  1.020804e+05 9.
       14     1     4     0     0     0  2.4635112400e+01 -2.6742200204e+01 -1.5009088973e+01  3.9335820654e+01  0.0000000000e+00 0. 9.
#pdf    1   -1  1.152944e-01  1.912874e-01  1.087362e+02  3.165151e-01  2.329995e-01
</event>
<event>
     8  9999  1.000000e+00  8.428600e+01  7.810542e-03  1.367733e-01
        2    -1     0     0   101     0  0.0000000000e+00  0.0000000000e+00  1.0251794239e+02  1.0251794239e+02  0.0000000000e+00 0. 9.
       -2    -1     0     0     0   101  0.0000000000e+00  0.0000000000e+00 -7.1862802321e+01  7.1862802321e+01  0.0000000000e+00 0. 9.
      -24     2     1     2     0     0 -1.6001064479e+01  5.3214631816e+00 -6.8796078813e-01  8.6246240417e+01  8.4578890163e+01 0. 9.
       24     2     1     2     0     0  1.6001064479e+01 -5.3214631816e+00  3.1343100855e+01  8.8134504293e+01  8.0628461730e+01 0. 9.
       13     1     3     0     0     0 -1.8533773596e+01 -2.2311763322e+01  3.2118933500e+01  4.3277622387e+01  1.0566000000e-01  2.183389e+06 9.
      -14     1     3     0     0     0  2.5327091177e+00  2.7633226504e+01 -3.2806894288e+01  4.2968618029e+01  0.0000000000e+00 0. 9.
       -3     1     4     0     0   102 -1.5999508127e+01  2.7291379209e+01  2.8079979873e+01  4.2302942085e+01  5.0000000000e-01 0. 9.
        4     1     4     0   102     0  3.2000572605e+01 -3.2612842390e+01  3.2631209818e+00  4.5831562208e+01  1.5000000000e+00 0. 9.
#pdf    2   -2  1.046101e-01  7.332939e-02  8.237294e+01  5.589515e-01  5.702863e-01
</event>
<event>
     8  9999  1.000000e+00  1.030264e+02  7.828341e-03  1.323391e-01
        2    -1     0     0   101     0  0.0000000000e+00  0.0000000000e+00  1.8646037422e+02  1.8646037422e+02  0.0000000000e+00 0. 9.
       -2    -1     0     0     0   101  0.0000000000e+00  0.0000000000e+00 -6.3712265820e+01  6.3712265820e+01  0.0000000000e+00 0. 9.
      -24     2     1     2     0     0  1.0816353943e+01  6.3367664304e+01  2.1022822095e+01  1.0599876519e+02  8.1616939297e+01 0. 9.
       24     2     1     2     0     0 -1.0816353943e+01 -6.3367664304e+01  1.0172528631e+02  1.4417387486e+02  7.9407921046e+01 0. 9.
        1     1     3     0   102     0 -2.8806405758e+01  4.9039595003e+01  2.7827074255e+01  6.3317816231e+01  3.3000000000e-01 0. 9.
       -2     1     3     0     0   102  3.9622759701e+01  1.4328069301e+01 -6.8042521600e+00  4.2680948955e+01  3.3000000000e-01 0. 9.
      -13     1     4     0     0     0 -1.4851555604e+01 -7.9715245961e+01  6.5537923157e+01  1.0426082523e+02  1.0566000000e-01  3.283637e+05 9.
       14     1     4     0     0     0  4.0352016605e+00  1.6347581657e+01  3.6187363151e+01  3.9913049624e+01  0.0000000000e+00 0. 9.
#pdf    2   -2  1.902657e-01  6.501252e-02  1.021669e+02  4.839225e-01  5.722083e-01
</event>
<event>
     8  9999  1.000000e+00  8.889801e+01  7.815257e-03  1.355680e-01
        2    -1     0     0   101     0  0.0000000000e+00  0.0000000000e+00  1.9933048106e+02  1.9933048106e+02  0.0000000000e+00 0. 9.
       -2    -1     0     0     0   101  0.0000000000e+00  0.0000000000e+00 -4.2908803324e+01  4.2908803324e+01  0.0000000000e+00 0. 9.
      -24     2     1     2     0     0 -2.9984934844e+01  2.6219528798e+01  4.2924519634e+01  9.6463390889e+01  7.6655798138e+01 0. 9.
       24     2     1     2     0     0  2.9984934844e+01 -2.6219528798e+01  1.1349715811e+02  1.4577589350e+02  8.2355608305e+01 0. 9.
        3     1     3     0   102     0 -2.4165873075e+01 -1.8247539461e+01  4.1748586929e+01  5.1576706258e+01  5.0000000000e-01 0. 9.
       -4     1     3     0     0   102 -5.8190617693e+00  4.4467068259e+01  1.1759327044e+00  4.4886684631e+01  1.5000000000e+00 0. 9.
       -1     1     4     0     0   103  8.6301528828e+00 -1.8370027860e+00 -1.2708215683e+01  1.5474552138e+01  3.3000000000e-01 0. 9.
        2     1     4     0   103     0  2.1354781961e+01 -2.4382526012e+01  1.2620537379e+02  1.3030134136e+02  3.3000000000e-01 0. 9.
#pdf    2   -2  2.033985e-01  4.378449e-02  8.638675e+01  4.740951e-01  5.815906e-01
</event>
<event>
     8  9999  1.000000e+00  1.124231e+02  7.836105e-03  1.304998e-01
        2    -1     0     0   101     0  0.0000000000e+00  0.0000000000e+00  1.2139205692e+02  1.2139205692e+02  0.0000000000e+00 0. 9.
       -2    -1     0     0     0   101  0.0000000000e+00  0.0000000000e+00 -2.0509412849e+02  2.0509412849e+02  0.0000000000e+00 0. 9.
      -24     2     1     2     0     0 -7.4955138460e+01  1.3041748574e-01 -1.5685922325e+02  1.9461194295e+02  8.7468295007e+01 0. 9.
       24     2     1     2     0     0  7.4955138460e+01 -1.3041748574e-01  7.3157151673e+01  1.3187424245e+02  8.0128379439e+01 0. 9.
        1     1     3     0   102     0  8.0664791525e+00 -2.7147453095e+00 -8.3056323274e+01  8.3491913763e+01  3.3000000000e-01 0. 9.
       -2     1     3     0     0   102 -8.3021617613e+01  2.8451627953e+00 -7.3802899973e+01  1.1112002919e+02  3.3000000000e-01 0. 9.
       -1     1     4     0     0   103 -1.0421131418e+01  2.1401450556e+00  3.8088525944e+01  3.9547754797e+01  3.3000000000e-01 0. 9.
        2     1     4     0   103     0  8.5376269878e+01 -2.2705625414e+00  3.5068625729e+01  9.2326487657e+01  3.3000000000e-01 0. 9.
#pdf    2   -2  1.238694e-01  2.092797e-01  1.097217e+02  5.432555e-01  4.596794e-01
</event>
<event>
     8  9999  1.000000e+00  8.914291e+01  7.815501e-03  1.355063e-01
        1    -1     0     0   101     0  0.0000000000e+00  0.0000000000e+00  1.9910395719e+02  1.9910395719e+02  0.0000000000e+00 0. 9.
       -2    -1     0     0     0   101  0.0000000000e+00  0.0000000000e+00 -7.8722915096e+01  7.8722915096e+01  0.0000000000e+00 0. 9.
       23     2     1     2     0     0 -1.5291501566e+01 -2.5320699437e+01  1.5960490720e+02  1.8629800042e+02  9.1423469191e+01 0. 9.
      -24     2     1     2     0     0  1.5291501566e+01  2.5320699437e+01 -3.9223865101e+01  9.1528871867e+01  7.7227294085e+01 0. 9.
        1     1     3     0   102     0 -7.9717517944e-02 -5.1663318864e+01  1.4209884777e+02  1.5119952483e+02  3.3000000000e-01 0. 9.
       -1     1     3     0     0   102 -1.5211784048e+01  2.6342619427e+01  1.7506059428e+01  3.5098475592e+01  3.3000000000e-01 0. 9.
       15     1     4     0     0     0 -1.7387951574e+01 -2.0155502678e+01 -1.1728492547e+01  2.9142758603e+01  1.7769900000e+00  1.795314e-01 9.
      -16     1     4     0     0     0  3.2679453140e+01  4.5476202115e+01 -2.7495372554e+01  6.2386113264e+01  0.0000000000e+00 0. 9.
#pdf    1   -2  2.031673e-01  8.032951e-02  8.269838e+01  2.260225e-01  5.681797e-01
</event>
<event>
     8  9999  1.000000e+00  8.732193e+01  7.813673e-03  1.359703e-01
        2    -1     0     0   101     0  0.0000000000e+00  0.0000000000e+00  3.8889092158e+01  3.8889092158e+01  0.0000000000e+00 0. 9.
       -2    -1     0     0     0   101  0.0000000000e+00  0.0000000000e+00 -2.3389093164e+02  2.3389093164e+02  0.0000000000e+00 0. 9.
      -24     2     1     2     0     0  3.4039202022e+01  1.1136186386e+01 -1.5325807010e+02  1.7688904907e+02  8.0740434148e+01 0. 9.
       24     2     1     2     0     0 -3.4039202022e+01 -1.1136186386e+01 -4.1743769379e+01  9.5890974732e+01  7.8548423482e+01 0. 9.
        3     1     3     0   102     0 -9.4649676658e+00 -2.3527060468e+01 -1.9423363771e+01  3.1947225973e+01  5.0000000000e-01 0. 9.
       -4     1     3     0     0   102  4.3504169688e+01  3.4663246855e+01 -1.3383470633e+02  1.4494182309e+02  1.5000000000e+00 0. 9.
       -3     1     4     0     0   103 -5.3729032981e+01  1.1442135881e+01 -3.5027380669e+01  6.5152888310e+01  5.0000000000e-01 0. 9.
        4     1     4     0   103     0  1.9689830959e+01 -2.2578322268e+01 -6.7163887108e+00  3.0738086423e+01  1.5000000000e+00 0. 9.
#pdf    2   -2  3.968275e-02  2.386642e-01  8.632808e+01  5.846687e-01  4.310679e-01
</event>
<event>
     8  9999  1.000000e+00  7.468966e+01  7.799864e-03  1.395892e-01
        2    -1     0     0   101     0  0.0000000000e+00  0.0000000000e+00  5.2300903217e+01  5.2300903217e+01  0.0000000000e+00 0. 9.
       -2    -1     0     0     0   101  0.0000000000e+00  0.0000000000e+00 -1.4198204390e+02  1.4198204390e+02  0.0000000000e+00 0. 9.
      -24     2     1     2     0     0  1.3560679758e+01 -2.6542281259e+00 -9.4622847628e+01  1.2270742621e+02  7.6894032226e+01 0. 9.
       24     2     1     2     0     0 -1.3560679758e+01  2.6542281259e+00  4.9417069411e+00  7.1575520909e+01  7.0054962447e+01 0. 9.
       13     1     3     0     0     0 -1.1965469427e+01  3.2097233245e+01 -3.3560360639e+01  4.7955331412e+01  1.0566000000e-01  1.177603e+06 9.
      -14     1     3     0     0     0  2.5526149185e+01 -3.4751461371e+01 -6.1062486989e+01  7.4752094800e+01  0.0000000000e+00 0. 9.
      -15     1     4     0     0     0  2.4718210201e+01 -1.5299851281e+01  2.0125214600e+00  2.9193891499e+01  1.7769900000e+00  3.676735e-02 9.
       16     1     4     0     0     0 -3.8278889959e+01  1.7954079407e+01  2.9291854811e+00  4.2381629410e+01  0.0000000000e+00 0. 9.
#pdf    2   -2  5.336827e-02  1.448796e-01  7.140472e+01  5.760220e-01  5.366921e-01
</event>
<event>
     8  9999  1.000000e+00  8.209676e+01  7.808214e-03  1.373766e-01
        2    -1     0     0   101     0  0.0000000000e+00  0.0000000000e+00  1.5867032705e+02  1.5867032705e+02  0.0000000000e+00 0. 9.
       -2    -1     0     0     0   101  0.0000000000e+00  0.0000000000e+00 -8.3143667404e+01  8.3143667404e+01  0.0000000000e+00 0. 9.
      -24     2     1     2     0     0  1.4539810459e+01  5.4558100983e+00 -4.6708399167e+01  9.4769291959e+01  8.0983777349e+01 0. 9.
       24     2     1     2     0     0 -1.4539810459e+01 -5.4558100983e+00  1.2223505881e+02  1.4704470249e+02  8.0246887643e+01 0. 9.
        1     1     3     0   102     0 -1.6673201553e+01  3.5299753185e+01 -2.5736627550e+01  4.6760572308e+01  3.3000000000e-01 0. 9.
       -2     1     3     0     0   102  3.1213012012e+01 -2.9843943086e+01 -2.0971771617e+01  4.8008719651e+01  3.3000000000e-01 0. 9.
       -3     1     4     0     0   103  2.7952730411e+01 -1.4600638528e+01  8.1833804503e+01  8.7701512771e+01  5.0000000000e-01 0. 9.
        2     1     4     0   103     0 -4.2492540870e+01  9.1448284302e+00  4.0401254308e+01  5.9343189721e+01  3.3000000000e-01 0. 9.
#pdf    2   -2  1.619085e-01  8.484048e-02  8.173576e+01  5.190375e-01  5.668382e-01
</event>
<event>
     8  9999  1.000000e+00  1.474350e+02  7.860319e-03  1.250991e-01
        2    -1     0     0   101     0  0.0000000000e+00  0.0000000000e+00  1.0782385681e+02  1.0782385681e+02  0.0000000000e+00 0. 9.
       -2    -1     0     0     0   101  0.0000000000e+00  0.0000000000e+00 -2.1000316165e+02  2.1000316165e+02  0.0000000000e+00 0. 9.
       23     2     1     2     0     0  3.9878934756e+01 -1.0616289894e+02 -8.3376388470e+01  1.7080917218e+02  9.6763942649e+01 0. 9.
       23     2     1     2     0     0 -3.9878934756e+01  1.0616289894e+02 -1.8802916368e+01  1.4701784628e+02  9.1650460505e+01 0. 9.
        5     1     3     0   103     0  2.5492406210e+01 -1.1309889913e+02 -3.7419552915e+01  1.2192000123e+02  4.8000000000e+00 0. 9.
       -5     1     3     0     0   103  1.4386528546e+01  6.9360001874e+00 -4.5956835555e+01  4.8889170953e+01  4.8000000000e+00 0. 9.
       11     1     4     0     0     0  1.6290104614e+01  5.7178063785e+01 -3.7355663958e+01  7.0214984986e+01  5.1100000000e-04 0. 9.
      -11     1     4     0     0     0 -5.6169039370e+01  4.8984835156e+01  1.8552747589e+01  7.6802861290e+01  5.1100000000e-04 0. 9.
#pdf    2   -2  1.100243e-01  2.142889e-01  1.458105e+02  5.479079e-01  4.448884e-01
</event>
<event>
     8  9999  1.000000e+00  8.500701e+01  7.811295e-03  1.365791e-01
        2    -1     0     0   101     0  0.0000000000e+00  0.0000000000e+00  2.6752122660e+02  2.6752122660e+02  0.0000000000e+00 0. 9.
       -2    -1     0     0     0   101  0.0000000000e+00  0.0000000000e+00 -2.8362574409e+01  2.8362574409e+01  0.0000000000e+00 0. 9.
      -24     2     1     2     0     0 -3.4234140723e+01 -2.0430455170e+01  9.4792779214e+01  1.3065902944e+02  8.0602302039e+01 0. 9.
       24     2     1     2     0     0  3.4234140723e+01  2.0430455170e+01  1.4436587298e+02  1.6522477157e+02  6.9773490448e+01 0. 9.
        3     1     3     0   102     0  1.5042906623e+01 -3.3647620606e+01  5.3691837064e+01  6.5126912866e+01  5.0000000000e-01 0. 9.
       -4     1     3     0     0   102 -4.9277047346e+01  1.3217165436e+01  4.1100942149e+01  6.5532116576e+01  1.5000000000e+00 0. 9.
      -13     1     4     0     0     0  1.9589392965e+01  4.0659165609e+01  4.8890221078e+01  6.6537034393e+01  1.0566000000e-01  3.203978e+05 9.
       14     1     4     0     0     0  1.4644747759e+01 -2.0228710439e+01  9.5475651897e+01  9.8687737172e+01  0.0000000000e+00 0. 9.
#pdf    2   -2  2.729808e-01  2.894140e-02  8.035994e+01  3.888406e-01  5.979298e-01
</event>
<event>
     8  9999  1.000000e+00  9.492250e+01  7.821068e-03  1.341133e-01
        2    -1     0     0   101     0  0.0000000000e+00  0.0000000000e+00  5.8569184845e+01  5.8569184845e+01  0.0000000000e+00 0. 9.
       -1    -1     0     0     0   101  0.0000000000e+00  0.0000000000e+00 -1.7693947414e+02  1.7693947414e+02  0.0000000000e+00 0. 9.
       23     2     1     2     0     0 -2.4033230217e+01 -2.9563735024e+01 -1.0407266503e+02  1.4451332298e+02  9.2743572984e+01 0. 9.
       24     2     1     2     0     0  2.4033230217e+01  2.9563735024e+01 -1.4297624271e+01  9.0995336006e+01  8.1388687984e+01 0. 9.
        3     1     3     0   102     0  1.6688376800e+01 -2.3826981542e+01  3.5407231548e+00  2.9308935328e+01  5.0000000000e-01 0. 9.
       -3     1     3     0     0   102 -4.0721607017e+01 -5.7367534825e+00 -1.0761338818e+02  1.1520438765e+02  5.0000000000e-01 0. 9.
       -3     1     4     0     0   103 -2.3772415649e+01  3.3969863955e+01 -1.0733989712e+01  4.2831623108e+01  5.0000000000e-01 0. 9.
        4     1     4     0   103     0  4.7805645867e+01 -4.4061289305e+00 -3.5636345584e+00  4.8163712898e+01  1.5000000000e+00 0. 9.
#pdf    2   -1  5.976447e-02  1.805505e-01  8.986506e+01  5.742144e-01  2.476198e-01
</event>
<event>
     8  9999  1.000000e+00  8.905613e+01  7.815414e-03  1.355281e-01
        1    -1     0     0   101     0  0.0000000000e+00  0.0000000000e+00  7.8504499947e+01  7.8504499947e+01  0.0000000000e+00 0. 9.
       -1    -1     0     0     0   101  0.0000000000e+00  0.0000000000e+00 -1.4703714428e+02  1.4703714428e+02  0.0000000000e+00 0. 9.
      -24     2     1     2     0     0 -6.3444736073e+00 -1.2475763243e+01  2.5675699144e+01  1.0139321971e+02  9.7084738566e+01 0. 9.
       24     2     1     2     0     0  6.3444736073e+00  1.2475763243e+01 -9.4208343477e+01  1.2414842452e+02  7.9634931504e+01 0. 9.
       13     1     3     0     0     0  3.6351211450e+01  2.1200863127e+01  2.0380145095e+01  4.6757337920e+01  1.0566000000e-01  1.860460e+05 9.
      -14     1     3     0     0     0 -4.2695685057e+01 -3.3676626370e+01  5.2955540491e+00  5.4635881789e+01  0.0000000000e+00 0. 9.
       -1     1     4     0     0   102  1.6149904261e+01  4.0245314148e+01 -8.0983601491e+01  9.1863797706e+01  3.3000000000e-01 0. 9.
        2     1     4     0   102     0 -9.8054306533e+00 -2.7769550905e+01 -1.3224741986e+01  3.2284626812e+01  3.3000000000e-01 0. 9.
#pdf    1   -1  8.010663e-02  1.500379e-01  8.085555e+01  3.628053e-01  2.820660e-01
</event>
<event>
     8  9999  1.000000e+00  8.826764e+01  7.814627e-03  1.357277e-01
        1    -1     0     0   101     0  0.0000000000e+00  0.0000000000e+00  1.4409169158e+02  1.4409169158e+02  0.0000000000e+00 0. 9.
       -1    -1     0     0     0   101  0.0000000000e+00  0.0000000000e+00 -6.6761573485e+01  6.6761573485e+01  0.0000000000e+00 0. 9.
      -24     2     1     2     0     0 -2.8402734649e+01  5.8284100207e+00  8.5437386138e+01  1.2471453597e+02  8.6101584382e+01 0. 9.
       24     2     1     2     0     0  2.8402734649e+01 -5.8284100207e+00 -8.1072680397e+00  8.6138729099e+01  8.0706054029e+01 0. 9.
        1     1     3     0   102     0 -3.6187744358e+01  1.9849947374e+01  9.6682380744e+01  1.0512452092e+02  3.3000000000e-01 0. 9.
       -2     1     3     0     0   102  7.7850097087e+00 -1.4021537353e+01 -1.1244994606e+01  1.9590015049e+01  3.3000000000e-01 0. 9.
       -3     1     4     0     0   103  1.5966547587e+01  1.5306879508e+01 -4.0101485683e+01  4.5799676375e+01  5.0000000000e-01 0. 9.
        4     1     4     0   103     0  1.2436187063e+01 -2.1135289528e+01  3.1994217643e+01  4.0339052724e+01  1.5000000000e+00 0. 9.
#pdf    1   -1  1.470323e-01  6.812405e-02  8.575636e+01  2.843234e-01  3.783907e-01
</event>
<event>
     8  9999  1.000000e+00  8.644341e+01  7.812778e-03  1.361988e-01
        2    -1     0     0   101     0  0.0000000000e+00  0.0000000000e+00  3.4028688424e+01  3.4028688424e+01  0.0000000000e+00 0. 9.
       -2    -1     0     0     0   101  0.0000000000e+00  0.0000000000e+00 -2.9944879906e+02  2.9944879906e+02  0.0000000000e+00 0. 9.
      -24     2     1     2     0     0 -3.2410693689e+01  1.9673373619e+00 -2.1883612761e+02  2.3529757609e+02  8.0133482899e+01 0. 9.
       24     2     1     2     0     0  3.2410693689e+01 -1.9673373619e+00 -4.6583983026e+01  9.8179911402e+01  8.0093096123e+01 0. 9.
       13     1     3     0     0     0  1.4989458308e+01  1.3644829220e+01 -1.3779790805e+01  2.4510386032e+01  1.0566000000e-01  1.193943e+06 9.
      -14     1     3     0     0     0 -4.7400151997e+01 -1.1677491858e+01 -2.0505633681e+02  2.1078719005e+02  0.0000000000e+00 0. 9.
       -3     1     4     0     0   102  5.8290492468e+00 -3.9758246243e+01 -2.2436417440e+01  4.6025414577e+01  5.0000000000e-01 0. 9.
        4     1     4     0   102     0  2.6581644443e+01  3.7790908881e+01 -2.4147565586e+01  5.2154496825e+01  1.5000000000e+00 0. 9.
#pdf    2   -2  3.472315e-02  3.055600e-01  8.642469e+01  5.899029e-01  3.427355e-01
</event>
<event>
     8  9999  1.000000e+00  8.930133e+01  7.815658e-03  1.354665e-01
        2    -1     0     0   101     0  0.0000000000e+00  0.0000000000e+00  8.9596133142e+01  8.9596133142e+01  0.0000000000e+00 0. 9.
       -2    -1     0     0     0   101  0.0000000000e+00  0.0000000000e+00 -3.4048244789e+02  3.4048244789e+02  0.0000000000e+00 0. 9.
      -24     2     1     2     0     0 -2.7820586001e+01 -2.6068060402e+01 -3.1023905647e+02  3.2282770966e+02  8.0721305686e+01 0. 9.
       24     2     1     2     0     0  2.7820586001e+01  2.6068060402e+01  5.9352741717e+01  1.0725087137e+02  8.0786587260e+01 0. 9.
       15     1     3     0     0     0 -4.4165149858e+01 -1.3864846815e+01 -8.6174126894e+01  9.7836252374e+01  1.7769900000e+00  5.733669e-02 9.
      -16     1     3     0     0     0  1.6344563857e+01 -1.2203213588e+01 -2.2406492957e+02  2.2499145729e+02  0.0000000000e+00 0. 9.
      -11     1     4     0     0     0  3.1934181522e+01  1.6348054190e+01 -9.8856823992e+00  3.7212599237e+01  5.1100000000e-04 0. 9.
       12     1     4     0     0     0 -4.1135955202e+00  9.7200062127e+00  6.9238424116e+01  7.0038272130e+01  0.0000000000e+00 0. 9.
#pdf    2   -2  9.142463e-02  3.474311e-01  8.927182e+01  5.636747e-01  2.866550e-01
</event>
<event>
     8  9999  1.000000e+00  8.811043e+01  7.814469e-03  1.357678e-01
        1    -1     0     0   101     0  0.0000000000e+00  0.0000000000e+00  8.7525501216e+01  8.7525501216e+01  0.0000000000e+00 0. 9.
       -1    -1     0     0     0   101  0.0000000000e+00  0.0000000000e+00 -1.0897611263e+02  1.0897611263e+02  0.0000000000e+00 0. 9.
      -24     2     1     2     0     0  3.1353830142e+01 -9.9983501952e+00  3.1404088167e+01  9.5426770552e+01  8.3886960328e+01 0. 9.
       24     2     1     2     0     0 -3.1353830142e+01  9.9983501952e+00 -5.2854699578e+01  1.0107484329e+02  7.9620820188e+01 0. 9.
        3     1     3     0   102     0 -2.1885362247e+00  6.3280358629e+00 -2.6053475576e+01  2.6904782442e+01  5.0000000000e-01 0. 9.
       -4     1     3     0     0   102  3.3542366367e+01 -1.6326386058e+01  5.7457563743e+01  6.8521988110e+01  1.5000000000e+00 0. 9.
      -11     1     4     0     0     0  2.5470317454e+01 -3.1151936350e+00 -2.7107512233e+01  3.7326381050e+01  5.1100000000e-04 0. 9.
       12     1     4     0     0     0 -5.6824147596e+01  1.3113543830e+01 -2.5747187345e+01  6.3748462240e+01  0.0000000000e+00 0. 9.
#pdf    1   -1  8.931174e-02  1.112001e-01  8.615396e+01  3.506209e-01  3.245546e-01
</event>
<event>
     8  9999  1.000000e+00  9.412257e+01  7.820318e-03  1.342993e-01
        2    -1     0     0   101     0  0.0000000000e+00  0.0000000000e+00  3.6289552391e+02  3.6289552391e+02  0.0000000000e+00 0. 9.
       -2    -1     0     0     0   101  0.0000000000e+00  0.0000000000e+00 -3.3899248650e+01  3.3899248650e+01  0.0000000000e+00 0. 9.
      -24     2     1     2     0     0 -2.0981699337e+01  3.6538848554e+01  6.7113618829e+01  1.2028134582e+02  9.0487817740e+01 0. 9.
       24     2     1     2     0     0  2.0981699337e+01 -3.6538848554e+01  2.6188265643e+02  2.7651342674e+02  7.8114212968e+01 0. 9.
       15     1     3     0     0     0 -4.6251580891e+01  2.2225582259e+00  6.1934677475e+01  7.7351215035e+01  1.7769900000e+00  2.085251e-02 9.
      -16     1     3     0     0     0  2.5269881555e+01  3.4316290329e+01  5.1789413541e+00  4.2930130785e+01  0.0000000000e+00 0. 9.
       -1     1     4     0     0   102 -1.0040801088e+01  2.0811891074e+01  8.1238025694e+01  8.4461104748e+01  3.3000000000e-01 0. 9.
        2     1     4     0   102     0  3.1022500425e+01 -5.7350739629e+01  1.8064463074e+02  1.9205232199e+02  3.3000000000e-01 0. 9.
#pdf    2   -2  3.703016e-01  3.459107e-02  8.875331e+01  2.580417e-01  5.903771e-01
</event>
<event>
     8  9999  1.000000e+00  1.018712e+02  7.827340e-03  1.325805e-01
        1    -1     0     0   101     0  0.0000000000e+00  0.0000000000e+00  1.3381228789e+02  1.3381228789e+02  0.0000000000e+00 0. 9.
       -2    -1     0     0     0   101  0.0000000000e+00  0.0000000000e+00 -1.1860789494e+02  1.1860789494e+02  0.0000000000e+00 0. 9.
       23     2     1     2     0     0  8.2284309947e+00  5.5174651543e+01  8.1899466041e+01  1.3407717600e+02  9.0317314716e+01 0. 9.
      -24     2     1     2     0     0 -8.2284309947e+00 -5.5174651543e+01 -6.6695073092e+01  1.1834300683e+02  8.0280042606e+01 0. 9.
       11     1     3     0     0     0 -3.7983937759e+01  7.8170854526e+00  2.0763559449e+01  4.3988768497e+01  5.1100000000e-04 0. 9.
      -11     1     3     0     0     0  4.6212368753e+01  4.7357566090e+01  6.1135906592e+01  9.0088407506e+01  5.1100000000e-04 0. 9.
        1     1     4     0   102     0  1.6397510424e+01  1.0312107076e+01  2.9815725240e+00  1.9601443191e+01  3.3000000000e-01 0. 9.
       -2     1     4     0     0   102 -2.4625941418e+01 -6.5486758619e+01 -6.9676645616e+01  9.8741563637e+01  3.3000000000e-01 0. 9.
#pdf    1   -2  1.365432e-01  1.210285e-01  9.775906e+01  2.937747e-01  5.471854e-01
</event>
<event>
     8  9999  1.000000e+00  8.133719e+01  7.807393e-03  1.375910e-01
        2    -1     0     0   101     0  0.0000000000e+00  0.0000000000e+00  4.8224479173e+01  4.8224479173e+01  0.0000000000e+00 0. 9.
       -2    -1     0     0     0   101  0.0000000000e+00  0.0000000000e+00 -1.6488910560e+02  1.6488910560e+02  0.0000000000e+00 0. 9.
      -24     2     1     2     0     0  4.4861799629e+00  3.0971395435e+00 -1.0224746390e+02  1.3090666255e+02  8.1561586191e+01 0. 9.
       24     2     1     2     0     0 -4.4861799629e+00 -3.0971395435e+00 -1.4417162535e+01  8.2206922230e+01  8.0749027257e+01 0. 9.
       11     1     3     0     0     0 -4.0980600415e+00 -2.1401641743e+01 -1.0265704946e+02  1.0494424314e+02  5.1100000000e-04 0. 9.
      -12     1     3     0     0     0  8.5842400043e+00  2.4498781287e+01  4.0958556086e-01  2.5962419404e+01  0.0000000000e+00 0. 9.
       -3     1     4     0     0   102  3.9444504004e+00  2.6352349893e+01 -3.5937218011e+01  4.4740794273e+01  5.0000000000e-01 0. 9.
        4     1     4     0   102     0 -8.4306303633e+00 -2.9449489437e+01  2.1520055475e+01  3.7466127957e+01  1.5000000000e+00 0. 9.
#pdf    2   -2  4.920865e-02  1.682542e-01  8.093283e+01  5.781012e-01  5.133607e-01
</event>
<event>
     8  9999  1.000000e+00  1.078321e+02  7.832395e-03  1.313720e-01
        2    -1     0     0   101     0  0.0000000000e+00  0.0000000000e+00  2.1710972392e+02  2.1710972392e+02  0.0000000000e+00 0. 9.
       -1    -1     0     0     0   101  0.0000000000e+00  0.0000000000e+00 -1.4840092468e+02  1.4840092468e+02  0.0000000000e+00 0. 9.
       23     2     1     2     0     0  4.0271429928e+01 -5.1716932579e+01 -1.1129231002e+02  1.5737218939e+02  8.9908834608e+01 0. 9.
       24     2     1     2     0     0 -4.0271429928e+01  5.1716932579e+01  1.8000110925e+02  2.0813845921e+02  8.1392811015e+01 0. 9.
       16     1     3     0     0     0  2.3495113266e+01 -6.0778640504e+01 -2.6302984418e+01  7.0270267384e+01  0.0000000000e+00 0. 9.
      -16     1     3     0     0     0  1.6776316662e+01  9.0617079250e+00 -8.4989325600e+01  8.7101922006e+01  0.0000000000e+00 0. 9.
       -3     1     4     0     0   102  1.9708373793e+01 -5.4621460067e+00  2.4406640433e+01  3.1846336269e+01  5.0000000000e-01 0. 9.
        4     1     4     0   102     0 -5.9979803721e+01  5.7179078586e+01  1.5559446882e+02  1.7629212294e+02  1.5000000000e+00 0. 9.
#pdf    2   -1  2.215405e-01  1.514295e-01  1.045046e+02  4.462284e-01  2.761302e-01
</event>
<event>
     8  9999  1.000000e+00  1.706304e+02  7.873431e-03  1.223698e-01
        2    -1     0     0   101     0  0.0000000000e+00  0.0000000000e+00  2.2283733288e+02  2.2283733288e+02  0.0000000000e+00 0. 9.
       -2    -1     0     0     0   101  0.0000000000e+00  0.0000000000e+00 -1.3160957844e+02  1.3160957844e+02  0.0000000000e+00 0. 9.
      -24     2     1     2     0     0 -1.3664047704e+02 -5.2234325714e+01  3.0034830026e+01  1.6998884796e+02  8.1210052739e+01 0. 9.
       24     2     1     2     0     0  1.3664047704e+02  5.2234325714e+01  6.1192924413e+01  1.8445806336e+02  9.4239898085e+01 0. 9.
       13     1     3     0     0     0 -2.1662575595e+01  2.1490902709e+01  2.1751174060e+00  3.0591965945e+01  1.0566000000e-01  3.261228e+05 9.
      -14     1     3     0     0     0 -1.1497790145e+02 -7.3725228423e+01  2.7859712620e+01  1.3939688201e+02  0.0000000000e+00 0. 9.
       -3     1     4     0     0   102 -8.7620989974e+00  1.8864125875e+01 -4.7546366043e+00  2.1342122507e+01  5.0000000000e-01 0. 9.
        4     1     4     0   102     0  1.4540257604e+02  3.3370199839e+01  6.5947561018e+01  1.6311594085e+02  1.5000000000e+00 0. 9.
#pdf    2   -2  2.273850e-01  1.342955e-01  1.673144e+02  4.241589e-01  5.273354e-01
</event>
<event>
     8  9999  1.000000e+00  8.275372e+01  7.808919e-03  1.371934e-01
        2    -1     0     0   101     0  0.0000000000e+00  0.0000000000e+00  2.9284847383e+01  2.9284847383e+01  0.0000000000e+00 0. 9.
       -2    -1     0     0     0   101  0.0000000000e+00  0.0000000000e+00 -2.9959021434e+02  2.9959021434e+02  0.0000000000e+00 0. 9.
      -24     2     1     2     0     0  1.5822067744e+01  9.2583802353e+00 -2.1438193428e+02  2.3045551101e+02  8.2547400767e+01 0. 9.
       24     2     1     2     0     0 -1.5822067744e+01 -9.2583802353e+00 -5.5923432672e+01  9.8419550716e+01  7.8885500626e+01 0. 9.
        1     1     3     0   102     0  2.1306069655e+01  4.4255875007e+01 -1.2249784298e+02  1.3197864036e+02  3.3000000000e-01 0. 9.
       -2     1     3     0     0   102 -5.4840019116e+00 -3.4997494772e+01 -9.1884091302e+01  9.8476870643e+01  3.3000000000e-01 0. 9.
       -1     1     4     0     0   103  9.2669091171e+00 -3.8097583146e+01 -4.2697479810e+01  5.7969691463e+01  3.3000000000e-01 0. 9.
        2     1     4     0   103     0 -2.5088976861e+01  2.8839202911e+01 -1.3225952862e+01  4.0449859253e+01  3.3000000000e-01 0. 9.
#pdf    2   -2  2.988250e-02  3.057043e-01  8.098752e+01  5.963629e-01  3.448948e-01
</event>
<event>
     8  9999  1.000000e+00  9.075216e+01  7.817085e-03  1.351066e-01
        2    -1     0     0   101     0  0.0000000000e+00  0.0000000000e+00  9.5238007322e+01  9.5238007322e+01  0.0000000000e+00 0. 9.
       -1    -1     0     0     0   101  0.0000000000e+00  0.0000000000e+00 -9.1624772577e+01  9.1624772577e+01  0.0000000000e+00 0. 9.
       23     2     1     2     0     0  3.0556593498e+01  2.0503158588e+00 -1.9643432379e+01  9.7871772041e+01  9.0857636584e+01 0. 9.
       24     2     1     2     0     0 -3.0556593498e+01 -2.0503158588e+00  2.3256667125e+01  8.8991007858e+01  8.0253459193e+01 0. 9.
       11     1     3     0     0     0 -1.2949019274e+01  3.7513802302e+01 -6.3495050493e+00  4.0190529705e+01  5.1100000000e-04 0. 9.
      -11     1     3     0     0     0  4.3505612772e+01 -3.5463486443e+01 -1.3293927330e+01  5.7681242337e+01  5.1100000000e-04 0. 9.
      -11     1     4     0     0     0 -1.1461053429e+01 -1.5947009668e+01 -2.7043905296e+01  3.3422083672e+01  5.1100000000e-04 0. 9.
       12     1     4     0     0     0 -1.9095540069e+01  1.3896693810e+01  5.0300572421e+01  5.5568924186e+01  0.0000000000e+00 0. 9.
#pdf    2   -1  9.718164e-02  9.349467e-02  8.589835e+01  5.617447e-01  3.455547e-01
</event>
<event>
     8  9999  1.000000e+00  1.036753e+02  7.828899e-03  1.322051e-01
        2    -1     0     0   101     0  0.0000000000e+00  0.0000000000e+00  3.3406022922e+01  3.3406022922e+01  0.0000000000e+00 0. 9.
       -2    -1     0     0     0   101  0.0000000000e+00  0.0000000000e+00 -4.1567106950e+02  4.1567106950e+02  0.0000000000e+00 0. 9.
      -24     2     1     2     0     0  6.6107962760e+01  2.5304451802e+01 -7.7107432553e+01  1.2490872440e+02  6.8161978084e+01 0. 9.
       24     2     1     2     0     0 -6.6107962760e+01 -2.5304451802e+01 -3.0515761402e+02  3.2416836802e+02  8.3386949841e+01 0. 9.
       11     1     3     0     0     0 -4.7186500823e+00  1.7776720012e+01  1.9535524495e+00  1.8495777908e+01  5.1100000000e-04 0. 9.
      -12     1     3     0     0     0  7.0826612842e+01  7.5277317900e+00 -7.9060985002e+01  1.0641294650e+02  0.0000000000e+00 0. 9.
      -15     1     4     0     0     0 -4.1211020670e+00 -4.0467066487e+01 -1.6844046492e+02  1.7329141602e+02  1.7769900000e+00  1.213062e-01 9.
       16     1     4     0     0     0 -6.1986860693e+01  1.5162614685e+01 -1.3671714911e+02  1.5087695199e+02  0.0000000000e+00 0. 9.
#pdf    2   -2  3.408778e-02  4.241542e-01  9.826817e+01  5.922159e-01  1.924783e-01
</event>
<event>
     8  9999  1.000000e+00  8.490967e+01  7.811194e-03  1.366052e-01
        1    -1     0     0   101     0  0.0000000000e+00  0.0000000000e+00  3.4830891507e+01  3.4830891507e+01  0.0000000000e+00 0. 9.
       -1    -1     0     0     0   101  0.0000000000e+00  0.0000000000e+00 -2.1310616780e+02  2.1310616780e+02  0.0000000000e+00 0. 9.
      -24     2     1     2     0     0  3.6000385987e+00  3.1753741683e+01 -1.1167712217e+02  1.4130057375e+02  8.0453788824e+01 0. 9.
       24     2     1     2     0     0 -3.6000385987e+00 -3.1753741683e+01 -6.6598154121e+01  1.0663648556e+02  7.6907512840e+01 0. 9.
       11     1     3     0     0     0  1.9172633906e+01  9.0366351193e+00  4.6986182532e+00  2.1710082426e+01  5.1100000000e-04 0. 9.
      -12     1     3     0     0     0 -1.5572595307e+01  2.2717106563e+01 -1.1637574042e+02  1.1959049132e+02  0.0000000000e+00 0. 9.
      -11     1     4     0     0     0 -1.9483511466e+01  2.0724607885e+01 -2.3470924052e+01  3.6878189586e+01  5.1100000000e-04 0. 9.
       12     1     4     0     0     0  1.5883472868e+01 -5.2478349567e+01 -4.3127230069e+01  6.9758295973e+01  0.0000000000e+00 0. 9.
#pdf    1   -1  3.554173e-02  2.174553e-01  8.328281e+01  4.402819e-01  2.117547e-01
</event>
<event>
     8  9999  1.000000e+00  8.778275e+01  7.814139e-03  1.358517e-01
        1    -1     0     0   101     0  0.0000000000e+00  0.0000000000e+00  1.2217649089e+02  1.2217649089e+02  0.0000000000e+00 0. 9.
       -1    -1     0     0     0   101  0.0000000000e+00  0.0000000000e+00 -2.6497195267e+02  2.6497195267e+02  0.0000000000e+00 0. 9.
      -24     2     1     2     0     0 -1.6095425415e+01  3.9441555861e+00  9.8529634814e+01  1.2814276184e+02  8.0236272296e+01 0. 9.
       24     2     1     2     0     0  1.6095425415e+01 -3.9441555861e+00 -2.4132509660e+02  2.5900568172e+02  9.2582513638e+01 0. 9.
        1     1     3     0   102     0 -2.3426534250e+01  3.6099999654e+01  7.8588296326e+01  8.9600455923e+01  3.3000000000e-01 0. 9.
       -2     1     3     0     0   102  7.3311088354e+00 -3.2155844068e+01  1.9941338487e+01  3.8542305914e+01  3.3000000000e-01 0. 9.
       -3     1     4     0     0   103  2.4287864721e+00 -9.4100956602e-01 -2.4455297832e+02  2.4456736026e+02  5.0000000000e-01 0. 9.
        4     1     4     0   103     0  1.3666638943e+01 -3.0031460201e+00  3.2278817194e+00  1.4438321454e+01  1.5000000000e+00 0. 9.
#pdf    1   -1  1.246699e-01  2.703795e-01  8.192972e+01  3.099129e-01  1.633790e-01
</event>
<event>
     8  9999  1.000000e+00  1.063460e+02  7.831160e-03  1.316649e-01
        2    -1     0     0   101     0  0.0000000000e+00  0.0000000000e+00  1.5385748172e+02  1.5385748172e+02  0.0000000000e+00 0. 9.
       -1    -1     0     0     0   101  0.0000000000e+00  0.0000000000e+00 -1.4060955204e+02  1.4060955204e+02  0.0000000000e+00 0. 9.
       23     2     1     2     0     0 -5.7009759206e+01  2.3262380522e+01 -9.4725360762e+01  1.4640906596e+02  9.3120726118e+01 0. 9.
       24     2     1     2     0     0  5.7009759206e+01 -2.3262380522e+01  1.0797329044e+02  1.4805796780e+02  8.0446748779e+01 0. 9.
       14     1     3     0     0     0 -8.1594139265e+00 -3.2796457370e+01 -4.7595753554e+01  5.8374133038e+01  0.0000000000e+00 0. 9.
      -14     1     3     0     0     0 -4.8850345280e+01  5.6058837891e+01 -4.7129607208e+01  8.8034932926e+01  0.0000000000e+00 0. 9.
       -3     1     4     0     0   102 -1.5759548502e+01 -1.6564032825e+01  8.0271901888e+00  2.4236673343e+01  5.0000000000e-01 0. 9.
        4     1     4     0   102     0  7.2769307708e+01 -6.6983476969e+00  9.9946100252e+01  1.2382129446e+02  1.5000000000e+00 0. 9.
#pdf    2   -1  1.569974e-01  1.434791e-01  1.013061e+02  5.181554e-01  2.854353e-01
</event>
<event>
     8  9999  1.000000e+00  1.196941e+02  7.841689e-03  1.292103e-01
        2    -1     0     0   101     0  0.0000000000e+00  0.0000000000e+00  7.4294930379e+01  7.4294930379e+01  0.0000000000e+00 0. 9.
       -2    -1     0     0     0   101  0.0000000000e+00  0.0000000000e+00 -2.0028229546e+02  2.0028229546e+02  0.0000000000e+00 0. 9.
      -24     2     1     2     0     0  2.0473644191e+01  8.5003496400e+01 -8.8668465490e+01  1.4778785251e+02  7.9588869016e+01 0. 9.
       24     2     1     2     0     0 -2.0473644191e+01 -8.5003496400e+01 -3.7318899591e+01  1.2678937333e+02  8.3893267997e+01 0. 9.
        1     1     3     0   102     0 -2.5153947453e+01  6.8711360543e+00 -1.0131057294e+01  2.7976433029e+01  3.3000000000e-01 0. 9.
       -2     1     3     0     0   102  4.5627591645e+01  7.8132360346e+01 -7.8537408196e+01  1.1981141948e+02  3.3000000000e-01 0. 9.
       -1     1     4     0     0   103  3.0519423033e+01 -4.2970805205e+01 -2.9069838443e+01  6.0192106537e+01  3.3000000000e-01 0. 9.
        2     1     4     0   103     0 -5.0993067225e+01 -4.2032691195e+01 -8.2490611485e+00  6.6597266790e+01  3.3000000000e-01 0. 9.
#pdf    2   -2  7.581115e-02  2.043697e-01  1.182335e+02  5.675623e-01  4.632814e-01
</event>
<event>
     8  9999  1.000000e+00  1.225713e+02  7.843808e-03  1.287283e-01
        2    -1     0     0   101     0  0.0000000000e+00  0.0000000000e+00  5.0637909846e+01  5.0637909846e+01  0.0000000000e+00 0. 9.
       -2    -1     0     0     0   101  0.0000000000e+00  0.0000000000e+00 -2.9980292574e+02  2.9980292574e+02  0.0000000000e+00 0. 9.
      -24     2     1     2     0     0  4.8777035003e+01 -7.9052125849e+01 -1.4251323256e+02  1.8802104544e+02  8.0084045404e+01 0. 9.
       24     2     1     2     0     0 -4.8777035003e+01  7.9052125849e+01 -1.0665178333e+02  1.6241979014e+02  7.9857044761e+01 0. 9.
       11     1     3     0     0     0 -1.1382369288e+01 -5.3279468552e+01 -4.5430176098e+01  7.0937726214e+01  5.1100000000e-04 0. 9.
      -12     1     3     0     0     0  6.0159404291e+01 -2.5772657297e+01 -9.7083056463e+01  1.1708331923e+02  0.0000000000e+00 0. 9.
       -1     1     4     0     0   102 -1.0681684443e-01  7.3049759141e+01 -7.0043409360e+01  1.0120507307e+02  3.3000000000e-01 0. 9.
        4     1     4     0   102     0 -4.8670218159e+01  6.0023667085e+00 -3.6608373970e+01  6.1214717074e+01  1.5000000000e+00 0. 9.
#pdf    2   -2  5.167134e-02  3.059214e-01  1.224973e+02  5.782343e-01  3.302000e-01
</event>
<event>
     8  9999  1.000000e+00  1.358941e+02  7.853024e-03  1.266752e-01
        2    -1     0     0   101     0  0.0000000000e+00  0.0000000000e+00  3.7791871308e+02  3.7791871308e+02  0.0000000000e+00 0. 9.
       -1    -1     0     0     0   101  0.0000000000e+00  0.0000000000e+00 -3.1564444488e+02  3.1564444488e+02  0.0000000000e+00 0. 9.
       23     2     1     2     0     0  8.6587830377e+01  4.9375693963e+01 -2.8766964601e+02  3.1819737915e+02  9.2522080285e+01 0. 9.
       24     2     1     2     0     0 -8.6587830377e+01 -4.9375693963e+01  3.4994391421e+02  3.7536577881e+02  9.2213411620e+01 0. 9.
        3     1     3     0   102     0  1.5350486455e+00 -1.9018208991e+01 -1.4310934306e+01  2.3855848094e+01  5.0000000000e-01 0. 9.
       -3     1     3     0     0   102  8.5052781731e+01  6.8393902954e+01 -2.7335871170e+02  2.9434153106e+02  5.0000000000e-01 0. 9.
       -1     1     4     0     0   103 -4.0025543297e+01 -5.5460559934e+01  1.0066547540e+02  1.2170277179e+02  3.3000000000e-01 0. 9.
        2     1     4     0   103     0 -4.6562287080e+01  6.0848659708e+00  2.4927843881e+02  2.5366300702e+02  3.3000000000e-01 0. 9.
#pdf    2   -1  3.856313e-01  3.220862e-01  1.357893e+02  2.266375e-01  1.144858e-01
</event>
<event>
     8  9999  1.000000e+00  1.230750e+02  7.844173e-03  1.286454e-01
        2    -1     0     0   101     0  0.0000000000e+00  0.0000000000e+00  6.5894356450e+01  6.5894356450e+01  0.0000000000e+00 0. 9.
       -2    -1     0     0     0   101  0.0000000000e+00  0.0000000000e+00 -2.5591916039e+02  2.5591916039e+02  0.0000000000e+00 0. 9.
       23     2     1     2     0     0 -2.9932808175e+01  7.6397110214e+01 -4.4908825916e+01  1.3262292969e+02  9.4018867152e+01 0. 9.
       23     2     1     2     0     0  2.9932808175e+01 -7.6397110214e+01 -1.4511597803e+02  1.8919058715e+02  8.9453561883e+01 0. 9.
        3     1     3     0   102     0 -3.7897903445e+01  6.1258806881e+01 -7.1179305179e+01  1.0127011401e+02  5.0000000000e-01 0. 9.
       -3     1     3     0     0   102  7.9650952699e+00  1.5138303333e+01  2.6270479262e+01  3.1352815681e+01  5.0000000000e-01 0. 9.
       16     1     4     0     0     0  4.1612899159e+01 -3.9139602047e+01 -2.4048982286e+01  6.1983024885e+01  0.0000000000e+00 0. 9.
      -16     1     4     0     0     0 -1.1680090984e+01 -3.7257508167e+01 -1.2106699574e+02  1.2720756227e+02  0.0000000000e+00 0. 9.
#pdf    2   -2  6.723914e-02  2.611420e-01  1.213855e+02  5.708820e-01  3.901695e-01
</event>
<event>
     8  9999  1.000000e+00  9.865381e+01  7.824490e-03  1.332724e-01
        2    -1     0     0   101     0  0.0000000000e+00  0.0000000000e+00  1.9943759898e+02  1.9943759898e+02  0.0000000000e+00 0. 9.
       -1    -1     0     0     0   101  0.0000000000e+00  0.0000000000e+00 -1.6374532119e+02  1.6374532119e+02  0.0000000000e+00 0. 9.
       23     2     1     2     0     0 -2.3552064326e+01  1.6649705063e+01  1.6953131967e+02  2.0477293852e+02  1.1117182911e+02 0. 9.
       24     2     1     2     0     0  2.3552064326e+01 -1.6649705063e+01 -1.3383904188e+02  1.5840998165e+02  7.9680115101e+01 0. 9.
        5     1     3     0   102     0 -2.0703300275e+01 -4.6578013620e+01  7.0000334289e+01  8.6724995219e+01  4.8000000000e+00 0. 9.
       -5     1     3     0     0   102 -2.8487640510e+00  6.3227718684e+01  9.9530985379e+01  1.1804794330e+02  4.8000000000e+00 0. 9.
       -3     1     4     0     0   103  1.8939505554e+01 -1.4767635583e+01 -1.4453405421e+02  1.4651665693e+02  5.0000000000e-01 0. 9.
        4     1     4     0   103     0  4.6125587720e+00 -1.8820694804e+00  1.0695012336e+01  1.1893324717e+01  1.5000000000e+00 0. 9.
#pdf    2   -1  2.035078e-01  1.670871e-01  8.473980e+01  4.745769e-01  2.628782e-01
</event>
<event>
     8  9999  1.000000e+00  8.610680e+01  7.812433e-03  1.362872e-01
        1    -1     0     0   101     0  0.0000000000e+00  0.0000000000e+00  6.1463595095e+01  6.1463595095e+01  0.0000000000e+00 0. 9.
       -1    -1     0     0     0   101  0.0000000000e+00  0.0000000000e+00 -1.5146474467e+02  1.5146474467e+02  0.0000000000e+00 0. 9.
      -24     2     1     2     0     0 -2.8242773476e+01 -5.5351813593e+00  2.9041930945e+00  8.6467336171e+01  8.1485418331e+01 0. 9.
       24     2     1     2     0     0  2.8242773476e+01  5.5351813593e+00 -9.2905342666e+01  1.2646100359e+02  8.0825059523e+01 0. 9.
        1     1     3     0   102     0 -3.7757533907e+01 -3.7198673087e+01  5.5690284367e+00  5.3296300283e+01  3.3000000000e-01 0. 9.
       -2     1     3     0     0   102  9.5147604309e+00  3.1663491727e+01 -2.6648353422e+00  3.3171035887e+01  3.3000000000e-01 0. 9.
       -3     1     4     0     0   103  2.3374326413e+01 -1.4382403564e+00 -1.0721684883e+02  1.0974575319e+02  5.0000000000e-01 0. 9.
        4     1     4     0   103     0  4.8684470634e+00  6.9734217157e+00  1.4311506164e+01  1.6715250399e+01  1.5000000000e+00 0. 9.
#pdf    1   -1  6.271795e-02  1.545559e-01  8.579617e+01  3.863119e-01  2.761120e-01
</event>
<event>
     8  9999  1.000000e+00  8.171012e+01  7.807797e-03  1.374854e-01
        2    -1     0     0   101     0  0.0000000000e+00  0.0000000000e+00  1.2120990668e+02  1.2120990668e+02  0.0000000000e+00 0. 9.
       -2    -1     0     0     0   101  0.0000000000e+00  0.0000000000e+00 -6.7015850178e+01  6.7015850178e+01  0.0000000000e+00 0. 9.
      -24     2     1     2     0     0 -4.2401151934e+00  4.4979323192e+00 -1.3077955857e+01  8.0889266453e+01  7.9585366280e+01 0. 9.
       24     2     1     2     0     0  4.2401151934e+00 -4.4979323192e+00  6.7272012354e+01  1.0733649040e+02  8.3410961829e+01 0. 9.
       11     1     3     0     0     0 -1.7041114780e+01 -2.6553283342e+01  1.6968358317e+01  3.5824595370e+01  5.1100000000e-04 0. 9.
      -12     1     3     0     0     0  1.2800999587e+01  3.1051215661e+01 -3.0046314173e+01  4.5064671083e+01  0.0000000000e+00 0. 9.
       -3     1     4     0     0   102 -8.0436166966e+00 -1.9597332767e+01 -1.2909505104e+01  2.4812507796e+01  5.0000000000e-01 0. 9.
        4     1     4     0   102     0  1.2283731890e+01  1.5099400447e+01  8.0181517458e+01  8.2523982604e+01  1.5000000000e+00 0. 9.
#pdf    2   -2  1.236836e-01  6.838352e-02  7.982506e+01  5.490871e-01  5.717351e-01
</event>
<event>
     8  9999  1.000000e+00  8.682705e+01  7.813170e-03  1.360986e-01
        2    -1     0     0   101     0  0.0000000000e+00  0.0000000000e+00  2.7612954674e+01  2.7612954674e+01  0.0000000000e+00 0. 9.
       -2    -1     0     0     0   101  0.0000000000e+00  0.0000000000e+00 -4.5595266798e+02  4.5595266798e+02  0.0000000000e+00 0. 9.
      -24     2     1     2     0     0  4.8550156552e+00  2.1910911786e+01 -3.6561357231e+02  3.7552327004e+02  8.2709025186e+01 0. 9.
       24     2     1     2     0     0 -4.8550156552e+00 -2.1910911786e+01 -6.2726140998e+01  1.0804235262e+02  8.5058344465e+01 0. 9.
        1     1     3     0   102     0 -2.1729743789e+01 -7.6860283778e+00 -3.1415201116e+01  3.8965119768e+01  3.3000000000e-01 0. 9.
       -2     1     3     0     0   102  2.6584759444e+01  2.9596940164e+01 -3.3419837120e+02  3.3655815027e+02  3.3000000000e-01 0. 9.
      -11     1     4     0     0     0 -1.5279046819e+01  3.0480048080e+01 -2.9869493408e+01  4.5328459485e+01  5.1100000000e-04 0. 9.
       12     1     4     0     0     0  1.0424031163e+01 -5.2390959866e+01 -3.2856647590e+01  6.2713893136e+01  0.0000000000e+00 0. 9.
#pdf    2   -2  2.817648e-02  4.652578e-01  8.569972e+01  6.004975e-01  1.542602e-01
</event>
<event>
     8  9999  1.000000e+00  1.247275e+02  7.845364e-03  1.283766e-01
        1    -1     0     0   101     0  0.0000000000e+00  0.0000000000e+00  3.2806125245e+02  3.2806125245e+02  0.0000000000e+00 0. 9.
       -1    -1     0     0     0   101  0.0000000000e+00  0.0000000000e+00 -4.7830621482e+01  4.7830621482e+01  0.0000000000e+00 0. 9.
      -24     2     1     2     0     0  9.4477627959e+01  4.4292252558e-01  1.5835473209e+02  2.0207043582e+02  8.2643944075e+01 0. 9.
       24     2     1     2     0     0 -9.4477627959e+01 -4.4292252558e-01  1.2187589887e+02  1.7382143811e+02  8.0211839866e+01 0. 9.
        3     1     3     0   102     0  9.2369710010e+01  2.8995499940e+01  1.2427072584e+02  1.5753210988e+02  5.0000000000e-01 0. 9.
       -4     1     3     0     0   102  2.1079179497e+00 -2.8552577415e+01  3.4084006257e+01  4.4538325941e+01  1.5000000000e+00 0. 9.
       -3     1     4     0     0   103 -1.2590663462e+01 -1.5483830005e+01 -6.3335295430e+00  2.0943671944e+01  5.0000000000e-01 0. 9.
        4     1     4     0   103     0 -8.1886964497e+01  1.5040907480e+01  1.2820942842e+02  1.5287776616e+02  1.5000000000e+00 0. 9.
#pdf    1   -1  3.347564e-01  4.880676e-02  1.239361e+02  1.069573e-01  4.093144e-01
</event>
<event>
     8  9999  1.000000e+00  7.880296e+01  7.804596e-03  1.383261e-01
        2    -1     0     0   101     0  0.0000000000e+00  0.0000000000e+00  1.0245482470e+02  1.0245482470e+02  0.0000000000e+00 0. 9.
       -2    -1     0     0     0   101  0.0000000000e+00  0.0000000000e+00 -8.5342812593e+01  8.5342812593e+01  0.0000000000e+00 0. 9.
      -24     2     1     2     0     0  2.7494001631e+00  4.7147384407e+00 -4.2009186231e+01  8.9095498114e+01  7.8380151164e+01 0. 9.
       24     2     1     2     0     0 -2.7494001631e+00 -4.7147384407e+00  5.9121198336e+01  9.8702139178e+01  7.8848007114e+01 0. 9.
       15     1     3     0     0     0  1.2826299126e+01 -3.1297629907e+01 -1.4122381335e+00  3.3899966034e+01  1.7769900000e+00  1.243834e-02 9.
      -16     1     3     0     0     0 -1.0076898963e+01  3.6012368348e+01 -4.0596948097e+01  5.5195532080e+01  0.0000000000e+00 0. 9.
       -1     1     4     0     0   102 -2.8715511478e+01  1.2780320731e+01 -4.1334915191e-01  3.1435600121e+01  3.3000000000e-01 0. 9.
        2     1     4     0   102     0  2.5966111315e+01 -1.7495059171e+01  5.9534547488e+01  6.7266539058e+01  3.3000000000e-01 0. 9.
#pdf    2   -2  1.045457e-01  8.708450e-02  7.856994e+01  5.596110e-01  5.664016e-01
</event>
<event>
     8  9999  1.000000e+00  9.726605e+01  7.823232e-03  1.335802e-01
        1    -1     0     0   101     0  0.0000000000e+00  0.0000000000e+00  1.2676620881e+02  1.2676620881e+02  0.0000000000e+00 0. 9.
       -1    -1     0     0     0   101  0.0000000000e+00  0.0000000000e+00 -8.4803494947e+01  8.4803494947e+01  0.0000000000e+00 0. 9.
      -24     2     1     2     0     0  4.8766716236e+01  5.9795704408e+00 -1.6093226007e+01  9.5570283567e+01  8.0378724191e+01 0. 9.
       24     2     1     2     0     0 -4.8766716236e+01 -5.9795704408e+00  5.8055939870e+01  1.1599942019e+02  8.7586673958e+01 0. 9.
       11     1     3     0     0     0  6.1919505908e+01  8.2655150651e+00  1.2777766358e+01  6.3762177382e+01  5.1100000000e-04 0. 9.
      -12     1     3     0     0     0 -1.3152789671e+01 -2.2859446243e+00 -2.8870992365e+01  3.1808106185e+01  0.0000000000e+00 0. 9.
       -3     1     4     0     0   102 -5.0114738492e+01 -1.8266895335e+01 -3.2667990136e+00  5.3442384444e+01  5.0000000000e-01 0. 9.
        2     1     4     0   102     0  1.3480222557e+00  1.2287324894e+01  6.1322738884e+01  6.2557035746e+01  3.3000000000e-01 0. 9.
#pdf    1   -1  1.293533e-01  8.653418e-02  9.420556e+01  3.024503e-01  3.531560e-01
</event>
<event>
     8  9999  1.000000e+00  9.261827e+01  7.818889e-03  1.346548e-01
        2    -1     0     0   101     0  0.0000000000e+00  0.0000000000e+00  1.3634641565e+02  1.3634641565e+02  0.0000000000e+00 0. 9.
       -1    -1     0     0     0   101  0.0000000000e+00  0.0000000000e+00 -9.8150595987e+01  9.8150595987e+01  0.0000000000e+00 0. 9.
       23     2     1     2     0     0  3.1766941415e+00  3.6182850398e+01 -5.0219755125e+01  1.0999321433e+02  9.0869100058e+01 0. 9.
       24     2     1     2     0     0 -3.1766941415e+00 -3.6182850398e+01  8.8415574786e+01  1.2450379730e+02  7.9778390742e+01 0. 9.
       11     1     3     0     0     0 -2.8032794728e+01 -1.6768890555e+01 -3.2373650452e+01  4.5990069739e+01  5.1100000000e-04 0. 9.
      -11     1     3     0     0     0  3.1209488870e+01  5.2951740953e+01 -1.7846104673e+01  6.4003144592e+01  5.1100000000e-04 0. 9.
       -3     1     4     0     0   102 -4.1252348288e+00 -3.8220331277e+01  2.4796950519e+00  3.8525448380e+01  5.0000000000e-01 0. 9.
        4     1     4     0   102     0  9.4854068727e-01  2.0374808792e+00  8.5935879734e+01  8.5978348923e+01  1.5000000000e+00 0. 9.
#pdf    2   -1  1.391290e-01  1.001537e-01  8.765775e+01  5.365552e-01  3.372880e-01
</event>
<event>
     8  9999  1.000000e+00  8.209475e+01  7.808212e-03  1.373772e-01
        2    -1     0     0   101     0  0.0000000000e+00  0.0000000000e+00  4.4902080960e+01  4.4902080960e+01  0.0000000000e+00 0. 9.
       -2    -1     0     0     0   101  0.0000000000e+00  0.0000000000e+00 -1.6668618216e+02  1.6668618216e+02  0.0000000000e+00 0. 9.
      -24     2     1     2     0     0  1.1040271044e+01  5.4152898917e+00 -2.7288468361e+01  8.6187356579e+01  8.0823183426e+01 0. 9.
       24     2     1     2     0     0 -1.1040271044e+01 -5.4152898917e+00 -9.4495632836e+01  1.2540090654e+02  8.1515334670e+01 0. 9.
       13     1     3     0     0     0  1.3476317564e+01  4.8064390293e+00  2.7681162174e+01  3.1160405880e+01  1.0566000000e-01  7.573481e+05 9.
      -14     1     3     0     0     0 -2.4360465204e+00  6.0885086247e-01 -5.4969630535e+01  5.5026950699e+01  0.0000000000e+00 0. 9.
       -3     1     4     0     0   102  5.8747679069e+00 -4.1725710058e+01 -4.3926931006e+01  6.0871775441e+01  5.0000000000e-01 0. 9.
        4     1     4     0   102     0 -1.6915038951e+01  3.6310420166e+01 -5.0568701830e+01  6.4529131097e+01  1.5000000000e+00 0. 9.
#pdf    2   -2  4.581845e-02  1.700879e-01  8.175329e+01  5.799551e-01  5.113186e-01
</event>
<event>
     8  9999  1.000000e+00  8.381761e+01  7.810049e-03  1.369006e-01
        1    -1     0     0   101     0  0.0000000000e+00  0.0000000000e+00  9.3284463977e+01  9.3284463977e+01  0.0000000000e+00 0. 9.
       -1    -1     0     0     0   101  0.0000000000e+00  0.0000000000e+00 -7.8697430824e+01  7.8697430824e+01  0.0000000000e+00 0. 9.
      -24     2     1     2     0     0 -1.3683622652e+00 -1.6979526021e+01 -1.0583668318e+01  8.2336915160e+01  7.9857227874e+01 0. 9.
       24     2     1     2     0     0  1.3683622652e+00  1.6979526021e+01  2.5170701471e+01  8.9644979641e+01  8.4335528949e+01 0. 9.
       13     1     3     0     0     0  3.4581668611e+01  4.1873425332e+00  9.3980516012e+00  3.6079913794e+01  1.0566000000e-01  2.761021e+05 9.
      -14     1     3     0     0     0 -3.5950030877e+01 -2.1166868554e+01 -1.9981719920e+01  4.6257001366e+01  0.0000000000e+00 0. 9.
       -3     1     4     0     0   102  5.3759088466e+00  9.3201442768e+00 -3.0987214684e+01  3.2805837272e+01  5.0000000000e-01 0. 9.
        4     1     4     0   102     0 -4.0075465814e+00  7.6593817446e+00  5.6157916155e+01  5.6839142369e+01  1.5000000000e+00 0. 9.
#pdf    1   -1  9.518823e-02  8.030350e-02  8.165386e+01  3.441038e-01  3.624664e-01
</event>
<event>
     8  9999  1.000000e+00  8.055475e+01  7.806538e-03  1.378147e-01
        1    -1     0     0   101     0  0.0000000000e+00  0.0000000000e+00  3.9436171573e+01  3.9436171573e+01  0.0000000000e+00 0. 9.
       -1    -1     0     0     0   101  0.0000000000e+00  0.0000000000e+00 -6.2817522283e+02  6.2817522283e+02  0.0000000000e+00 0. 9.
      -24     2     1     2     0     0  1.0181128912e+01 -9.5525373308e+00 -8.6015710562e+00  8.2048458527e+01  8.0393135072e+01 0. 9.
       24     2     1     2     0     0 -1.0181128912e+01  9.5525373308e+00 -5.8013748020e+02  5.8556293588e+02  7.8291440039e+01 0. 9.
        1     1     3     0   102     0 -1.0267059506e+01 -2.5414926564e+01  2.6706079338e+01  3.8270805802e+01  3.3000000000e-01 0. 9.
       -2     1     3     0     0   102  2.0448188418e+01  1.5862389233e+01 -3.5307650394e+01  4.3777652725e+01  3.3000000000e-01 0. 9.
      -11     1     4     0     0     0 -2.9893765597e-01  2.3564607018e+01 -5.5274151484e+02  5.5324367352e+02  5.1100000000e-04 0. 9.
       12     1     4     0     0     0 -9.8821912557e+00 -1.4012069687e+01 -2.7395965364e+01  3.2319262355e+01  0.0000000000e+00 0. 9.
#pdf    1   -1  4.024099e-02  6.409951e-01  7.952645e+01  4.277435e-01  5.999715e-03
</event>
<event>
     8  9999  1.000000e+00  1.076953e+02  7.832282e-03  1.313987e-01
        2    -1     0     0   101     0  0.0000000000e+00  0.0000000000e+00  2.1063666609e+02  2.1063666609e+02  0.0000000000e+00 0. 9.
       -2    -1     0     0     0   101  0.0000000000e+00  0.0000000000e+00 -1.3072730996e+02  1.3072730996e+02  0.0000000000e+00 0. 9.
      -24     2     1     2     0     0 -4.2422637109e+01  5.7827013455e+01 -8.9885090577e+01  1.4033912840e+02  8.0449349454e+01 0. 9.
       24     2     1     2     0     0  4.2422637109e+01 -5.7827013455e+01  1.6979444671e+02  2.0102484765e+02  8.0232110856e+01 0. 9.
        3     1     3     0   102     0 -4.4144885516e+01  1.5379624663e+00 -1.5046155604e+01  4.6666615950e+01  5.0000000000e-01 0. 9.
       -4     1     3     0     0   102  1.7222484073e+00  5.6289050989e+01 -7.4838934973e+01  9.3672512450e+01  1.5000000000e+00 0. 9.
       -1     1     4     0     0   103  3.3082156168e+01  1.3036986977e+01  6.6509967615e+01  7.5419339551e+01  3.3000000000e-01 0. 9.
        2     1     4     0   103     0  9.3404809403e+00 -7.0864000432e+01  1.0328447910e+02  1.2560550810e+02  3.3000000000e-01 0. 9.
#pdf    2   -2  2.149354e-01  1.333952e-01  1.076143e+02  4.534293e-01  5.367079e-01
</event>
<event>
     8  9999  1.000000e+00  8.442195e+01  7.810684e-03  1.367365e-01
        1    -1     0     0   101     0  0.0000000000e+00  0.0000000000e+00  1.4381295024e+02  1.4381295024e+02  0.0000000000e+00 0. 9.
       -1    -1     0     0     0   101  0.0000000000e+00  0.0000000000e+00 -6.9357710479e+01  6.9357710479e+01  0.0000000000e+00 0. 9.
      -24     2     1     2     0     0  2.0286422485e+01  1.4788695719e+01  9.4371863623e+01  1.2705014617e+02  8.1273898269e+01 0. 9.
       24     2     1     2     0     0 -2.0286422485e+01 -1.4788695719e+01 -1.9916623865e+01  8.6120514546e+01  7.9936391345e+01 0. 9.
        1     1     3     0   102     0  4.2651364299e+01 -1.0284877481e+01  7.8410954638e+01  8.9851568092e+01  3.3000000000e-01 0. 9.
       -2     1     3     0     0   102 -2.2364941815e+01  2.5073573200e+01  1.5960908985e+01  3.7198578078e+01  3.3000000000e-01 0. 9.
       -3     1     4     0     0   103 -2.6156262989e+01 -1.2392422922e+01 -4.8675536024e+01  5.6632853068e+01  5.0000000000e-01 0. 9.
        4     1     4     0   103     0  5.8698405040e+00 -2.3962727971e+00  2.8758912159e+01  2.9487661478e+01  1.5000000000e+00 0. 9.
#pdf    1   -1  1.467479e-01  7.077317e-02  8.378586e+01  2.850338e-01  3.748774e-01
</event>
<event>
     8  9999  1.000000e+00  8.273731e+01  7.808901e-03  1.371979e-01
        2    -1     0     0   101     0  0.0000000000e+00  0.0000000000e+00  3.7982102055e+01  3.7982102055e+01  0.0000000000e+00 0. 9.
       -2    -1     0     0     0   101  0.0000000000e+00  0.0000000000e+00 -2.1162723338e+02  2.1162723338e+02  0.0000000000e+00 0. 9.
      -24     2     1     2     0     0 -1.5123302526e+01  1.4700739107e+01 -1.3467759122e+02  1.5793525226e+02  7.9753773076e+01 0. 9.
       24     2     1     2     0     0  1.5123302526e+01 -1.4700739107e+01 -3.8967540106e+01  9.1674083176e+01  8.0254858635e+01 0. 9.
        1     1     3     0   102     0 -4.2287969270e+01  1.8156242903e+01 -1.1597492860e+02  1.2477265111e+02  3.3000000000e-01 0. 9.
       -2     1     3     0     0   102  2.7164666744e+01 -3.4555037960e+00 -1.8702662616e+01  3.3162601146e+01  3.3000000000e-01 0. 9.
      -13     1     4     0     0     0 -8.1485690115e+00  2.8824992593e+01 -2.0247922186e+00  3.0023163099e+01  1.0566000000e-01  2.486481e+05 9.
       14     1     4     0     0     0  2.3271871537e+01 -4.3525731700e+01 -3.6942747887e+01  6.1650920077e+01  0.0000000000e+00 0. 9.
#pdf    2   -2  3.875725e-02  2.159462e-01  8.249540e+01  5.851162e-01  4.607899e-01
</event>
<event>
     8  9999  1.000000e+00  8.721190e+01  7.813561e-03  1.359988e-01
        2    -1     0     0   101     0  0.0000000000e+00  0.0000000000e+00  3.0505269943e+01  3.0505269943e+01  0.0000000000e+00 0. 9.
       -2    -1     0     0     0   101  0.0000000000e+00  0.0000000000e+00 -2.7531676631e+02  2.7531676631e+02  0.0000000000e+00 0. 9.
      -24     2     1     2     0     0  3.8207886128e+01  1.4438149469e+01 -1.6537449971e+02  1.8563429013e+02  7.3777108893e+01 0. 9.
       24     2     1     2     0     0 -3.8207886128e+01 -1.4438149469e+01 -7.9436996658e+01  1.2018774612e+02  8.0414893874e+01 0. 9.
        3     1     3     0   102     0  1.1733363467e+01 -2.8962343222e+01 -4.3408204460e+01  5.3488422650e+01  5.0000000000e-01 0. 9.
       -4     1     3     0     0   102  2.6474522661e+01  4.3400492692e+01 -1.2196629525e+02  1.3214586748e+02  1.5000000000e+00 0. 9.
      -13     1     4     0     0     0  7.7927471737e+00 -2.8808329884e+01 -6.2228095070e+01  6.9014446019e+01  1.0566000000e-01  1.082727e+05 9.
       14     1     4     0     0     0 -4.6000633302e+01  1.4370180415e+01 -1.7208901588e+01  5.1173300100e+01  0.0000000000e+00 0. 9.
#pdf    2   -2  3.112783e-02  2.809355e-01  8.432891e+01  5.948810e-01  3.765004e-01
</event>
<event>
     8  9999  1.000000e+00  1.069575e+02  7.831670e-03  1.315437e-01
        2    -1     0     0   101     0  0.0000000000e+00  0.0000000000e+00  4.2913947824e+01  4.2913947824e+01  0.0000000000e+00 0. 9.
       -2    -1     0     0     0   101  0.0000000000e+00  0.0000000000e+00 -3.2269061935e+02  3.2269061935e+02  0.0000000000e+00 0. 9.
      -24     2     1     2     0     0 -2.4189404336e+01 -6.5882975950e+01 -2.1686398125e+02  2.4211679206e+02  8.1638598909e+01 0. 9.
       24     2     1     2     0     0  2.4189404336e+01  6.5882975950e+01 -6.2912690276e+01  1.2348777511e+02  7.9784272904e+01 0. 9.
        3     1     3     0   102     0 -1.1801448741e+01  1.8532263596e+01 -5.2718603313e+01  5.7115848253e+01  5.0000000000e-01 0. 9.
       -4     1     3     0     0   102 -1.2387955595e+01 -8.4415239547e+01 -1.6414537794e+02  1.8500094381e+02  1.5000000000e+00 0. 9.
      -11     1     4     0     0     0 -2.7608744007e-01 -1.3656899973e+01 -3.1861021375e+01  3.4665715404e+01  5.1100000000e-04 0. 9.
       12     1     4     0     0     0  2.4465491776e+01  7.9539875923e+01 -3.1051668901e+01  8.8822059710e+01  0.0000000000e+00 0. 9.
#pdf    2   -2  4.378974e-02  3.292761e-01  1.062602e+02  5.829041e-01  3.042268e-01
</event>
</LesHouchesEvents>
