<LesHouchesEvents version="1.0">
<!--
  File written by Pythia8::LHAup on 16 Jun 2009 at 17:31:53
-->
<init>
  2212  -2212  9.800000e+02  9.800000e+02  0  0  0  0  3  1
  1.124460e+01  4.779375e-01  1.000000e+00   9999
</init>
<event>
     8  9999  1.000000e+00  1.493841e+02  7.861496e-03  1.175444e-01
        2    -1     0     0   101     0  0.0000000000e+00  0.0000000000e+00  3.8720650185e+02  3.8720650185e+02  0.0000000000e+00 0. 9.
       -1    -1     0     0     0   101  0.0000000000e+00  0.0000000000e+00 -1.0201284644e+02  1.0201284644e+02  0.0000000000e+00 0. 9.
       23     2     1     2     0     0  1.1364782410e+02  4.6333247583e+01 -1.7236955412e+01  1.5308368581e+02  8.9860472256e+01 0. 9.
       24     2     1     2     0     0 -1.1364782410e+02 -4.6333247583e+01  3.0243061082e+02  3.3613566247e+02  8.0376062794e+01 0. 9.
        5     1     3     0   102     0  5.3635582210e+01  6.7816917109e+01  1.0298817876e+00  8.6602601472e+01  4.8000000000e+00 0. 9.
       -5     1     3     0     0   102  6.0012241894e+01 -2.1483669526e+01 -1.8266837200e+01  6.6481084338e+01  4.8000000000e+00 0. 9.
       -3     1     4     0     0   103 -2.3441594464e+01 -1.5962518501e+01  1.2535733612e+01  3.1011368321e+01  5.0000000000e-01 0. 9.
        4     1     4     0   103     0 -9.0206229640e+01 -3.0370729082e+01  2.8989487721e+02  3.0512429415e+02  1.5000000000e+00 0. 9.
#pdf    2   -1  3.951087e-01  1.040947e-01  1.467069e+02  2.183510e-01  3.316026e-01
</event>
<event>
     8  9999  1.000000e+00  8.546360e+01  7.811769e-03  1.277786e-01
        1    -1     0     0   101     0  0.0000000000e+00  0.0000000000e+00  5.0763915377e+01  5.0763915377e+01  0.0000000000e+00 0. 9.
       -1    -1     0     0     0   101  0.0000000000e+00  0.0000000000e+00 -1.8431370221e+02  1.8431370221e+02  0.0000000000e+00 0. 9.
      -24     2     1     2     0     0 -3.9041856599e+01  9.4974143483e+00 -1.1799023829e+01  8.6395309559e+01  7.5567619418e+01 0. 9.
       24     2     1     2     0     0  3.9041856599e+01 -9.4974143483e+00 -1.2175076301e+02  1.4868230803e+02  7.5290855903e+01 0. 9.
        3     1     3     0   102     0 -5.7432507908e+01 -1.4435652715e+00  6.9928137147e+00  5.7876819962e+01  5.0000000000e-01 0. 9.
       -4     1     3     0     0   102  1.8390651309e+01  1.0940979620e+01 -1.8791837544e+01  2.8518489597e+01  1.5000000000e+00 0. 9.
       -1     1     4     0     0   103  5.9324175258e+01 -1.1709970518e+01 -1.0891513859e+02  1.2457566975e+02  3.3000000000e-01 0. 9.
        2     1     4     0   103     0 -2.0282318659e+01  2.2125561698e+00 -1.2835624416e+01  2.4106638280e+01  3.3000000000e-01 0. 9.
#pdf    1   -1  5.179991e-02  1.880752e-01  8.534155e+01  4.143183e-01  2.437254e-01
</event>
<event>
     8  9999  1.000000e+00  1.048706e+02  7.829919e-03  1.238278e-01
        2    -1     0     0   101     0  0.0000000000e+00  0.0000000000e+00  1.2718306061e+02  1.2718306061e+02  0.0000000000e+00 0. 9.
       -2    -1     0     0     0   101  0.0000000000e+00  0.0000000000e+00 -9.3168424704e+01  9.3168424704e+01  0.0000000000e+00 0. 9.
      -24     2     1     2     0     0  3.6801725691e+01  6.7501677188e+01  4.6644285420e+01  1.2169687816e+02  8.1997544812e+01 0. 9.
       24     2     1     2     0     0 -3.6801725691e+01 -6.7501677188e+01 -1.2629649511e+01  9.8654607155e+01  6.0517600986e+01 0. 9.
        3     1     3     0   102     0 -1.3658683316e+01  2.8607164059e+01  4.8498055238e+01  5.7941701971e+01  5.0000000000e-01 0. 9.
       -4     1     3     0     0   102  5.0460409007e+01  3.8894513130e+01 -1.8537698178e+00  6.3755176192e+01  1.5000000000e+00 0. 9.
      -15     1     4     0     0     0 -4.0587571703e+00  9.8616427004e+00 -9.8125679408e+00  1.4600331831e+01  1.7769900000e+00 0. 9.
       16     1     4     0     0     0 -3.2742968521e+01 -7.7363319889e+01 -2.8170815702e+00  8.4054275324e+01  0.0000000000e+00 0. 9.
#pdf    2   -2  1.297786e-01  9.506982e-02  9.784285e+01  5.524027e-01  5.683987e-01
</event>
<event>
     8  9999  1.000000e+00  8.933246e+01  7.815689e-03  1.269026e-01
        1    -1     0     0   101     0  0.0000000000e+00  0.0000000000e+00  1.4127665330e+02  1.4127665330e+02  0.0000000000e+00 0. 9.
       -1    -1     0     0     0   101  0.0000000000e+00  0.0000000000e+00 -5.8591108277e+01  5.8591108277e+01  0.0000000000e+00 0. 9.
      -24     2     1     2     0     0  3.3316107564e+01 -1.2252895819e+01  5.8932925443e+01  1.0493914449e+02  7.9240380268e+01 0. 9.
       24     2     1     2     0     0 -3.3316107564e+01  1.2252895819e+01  2.3752619578e+01  9.4928617090e+01  8.4777113224e+01 0. 9.
       15     1     3     0     0     0 -2.5386617728e+01 -5.3105131439e+00  2.8055913383e+01  3.8248841535e+01  1.7769900000e+00 0. 9.
      -16     1     3     0     0     0  5.8702725293e+01 -6.9423826748e+00  3.0877012061e+01  6.6690302952e+01  0.0000000000e+00 0. 9.
       -1     1     4     0     0   102  2.0807736729e+01  2.3282117961e+01  2.4492671016e+01  3.9686505994e+01  3.3000000000e-01 0. 9.
        2     1     4     0   102     0 -5.4123844293e+01 -1.1029222142e+01 -7.4005143790e-01  5.5242111096e+01  3.3000000000e-01 0. 9.
#pdf    1   -1  1.441599e-01  5.978685e-02  8.682819e+01  2.916881e-01  3.998682e-01
</event>
<event>
     8  9999  1.000000e+00  8.833153e+01  7.814691e-03  1.271244e-01
        2    -1     0     0   101     0  0.0000000000e+00  0.0000000000e+00  2.3663477619e+02  2.3663477619e+02  0.0000000000e+00 0. 9.
       -1    -1     0     0     0   101  0.0000000000e+00  0.0000000000e+00 -7.5655926087e+01  7.5655926087e+01  0.0000000000e+00 0. 9.
       23     2     1     2     0     0  1.6567121911e+01  1.5341753328e+01  1.9893519636e+02  2.1898566792e+02  8.8711168837e+01 0. 9.
       24     2     1     2     0     0 -1.6567121911e+01 -1.5341753328e+01 -3.7956346256e+01  9.3305034366e+01  8.2190670355e+01 0. 9.
       13     1     3     0     0     0 -2.7042481992e+01  3.4524601365e+01  9.2024141914e+01  1.0193967721e+02  1.0566000000e-01 0. 9.
      -13     1     3     0     0     0  4.3609603904e+01 -1.9182848036e+01  1.0691105445e+02  1.1704599070e+02  1.0566000000e-01 0. 9.
       -1     1     4     0     0   102 -3.8988538548e+01 -3.6464577240e+01 -3.0968609681e+01  6.1716571655e+01  3.3000000000e-01 0. 9.
        2     1     4     0   102     0  2.2421416636e+01  2.1122823911e+01 -6.9877365754e+00  3.1588462711e+01  3.3000000000e-01 0. 9.
#pdf    2   -1  2.414641e-01  7.719992e-02  8.523582e+01  4.416438e-01  3.735501e-01
</event>
<event>
     8  9999  1.000000e+00  9.047313e+01  7.816813e-03  1.266538e-01
        2    -1     0     0   101     0  0.0000000000e+00  0.0000000000e+00  2.9577518294e+02  2.9577518294e+02  0.0000000000e+00 0. 9.
       -1    -1     0     0     0   101  0.0000000000e+00  0.0000000000e+00 -1.1142309691e+02  1.1142309691e+02  0.0000000000e+00 0. 9.
       23     2     1     2     0     0 -2.8120182613e+01 -8.5392094620e+00 -8.2924148253e+01  1.2653654606e+02  9.0947349372e+01 0. 9.
       24     2     1     2     0     0  2.8120182613e+01  8.5392094620e+00  2.6727623429e+02  2.8066173379e+02  8.0441038202e+01 0. 9.
        4     1     3     0   102     0 -2.4736353050e+01 -3.6234834174e+01 -8.7809025507e+01  9.8170898592e+01  1.5000000000e+00 0. 9.
       -4     1     3     0     0   102 -3.3838295637e+00  2.7695624712e+01  4.8848772541e+00  2.8365647472e+01  1.5000000000e+00 0. 9.
       -3     1     4     0     0   103  5.2828071328e+01  9.2612807204e+00  2.2805063357e+02  2.3427316943e+02  5.0000000000e-01 0. 9.
        4     1     4     0   103     0 -2.4707888714e+01 -7.2207125846e-01  3.9225600721e+01  4.6388564361e+01  1.5000000000e+00 0. 9.
#pdf    2   -1  3.018114e-01  1.136970e-01  8.564125e+01  3.580945e-01  3.272248e-01
</event>
<event>
     8  9999  1.000000e+00  9.337125e+01  7.819608e-03  1.260396e-01
        1    -1     0     0   101     0  0.0000000000e+00  0.0000000000e+00  1.8418453768e+02  1.8418453768e+02  0.0000000000e+00 0. 9.
       -2    -1     0     0     0   101  0.0000000000e+00  0.0000000000e+00 -7.9010554316e+01  7.9010554316e+01  0.0000000000e+00 0. 9.
       23     2     1     2     0     0 -6.0116218516e+01  2.2486378517e+01  1.3177430588e+02  1.5644995369e+02  5.4703961200e+01 0. 9.
      -24     2     1     2     0     0  6.0116218516e+01 -2.2486378517e+01 -2.6600322519e+01  1.0674513831e+02  8.1039190806e+01 0. 9.
       12     1     3     0     0     0 -2.5712466192e+01  1.2938081116e+01  1.1199166873e+02  1.1563156457e+02  0.0000000000e+00 0. 9.
      -12     1     3     0     0     0 -3.4403752324e+01  9.5482974013e+00  1.9782637150e+01  4.0818389114e+01  0.0000000000e+00 0. 9.
        3     1     4     0   102     0  5.1550578815e+00  1.6076973088e+01  1.9112235354e+01  2.5506297765e+01  5.0000000000e-01 0. 9.
       -4     1     4     0     0   102  5.4961160634e+01 -3.8563351605e+01 -4.5712557873e+01  8.1238840542e+01  1.5000000000e+00 0. 9.
#pdf    1   -2  1.879434e-01  8.062301e-02  8.433339e+01  2.440870e-01  5.738227e-01
</event>
<event>
     8  9999  1.000000e+00  8.218296e+01  7.808308e-03  1.285632e-01
        2    -1     0     0   101     0  0.0000000000e+00  0.0000000000e+00  1.4079597684e+02  1.4079597684e+02  0.0000000000e+00 0. 9.
       -2    -1     0     0     0   101  0.0000000000e+00  0.0000000000e+00 -2.4244607493e+02  2.4244607493e+02  0.0000000000e+00 0. 9.
      -24     2     1     2     0     0  1.9064413695e+01  2.3218772349e+00 -2.2250704095e+02  2.3737963195e+02  8.0441677068e+01 0. 9.
       24     2     1     2     0     0 -1.9064413695e+01 -2.3218772349e+00  1.2085694286e+02  1.4586241982e+02  7.9376330829e+01 0. 9.
       11     1     3     0     0     0  6.8837637096e+00  8.3592881769e+00  3.1779631587e+00  1.1285537282e+01  5.1100000000e-04 0. 9.
      -12     1     3     0     0     0  1.2180649986e+01 -6.0374109420e+00 -2.2568500411e+02  2.2609409467e+02  0.0000000000e+00 0. 9.
       -1     1     4     0     0   102 -3.3801439235e+01 -2.5815567732e+00  1.1925512064e+01  3.5937841724e+01  3.3000000000e-01 0. 9.
        2     1     4     0   102     0  1.4737025540e+01  2.5967953835e-01  1.0893143080e+02  1.0992457810e+02  3.3000000000e-01 0. 9.
#pdf    2   -2  1.436694e-01  2.473940e-01  8.166667e+01  5.473225e-01  4.352394e-01
</event>
<event>
     8  9999  1.000000e+00  8.404642e+01  7.810290e-03  1.281126e-01
        2    -1     0     0   101     0  0.0000000000e+00  0.0000000000e+00  8.8267695490e+01  8.8267695490e+01  0.0000000000e+00 0. 9.
       -2    -1     0     0     0   101  0.0000000000e+00  0.0000000000e+00 -8.4133186290e+01  8.4133186290e+01  0.0000000000e+00 0. 9.
      -24     2     1     2     0     0  3.3430069207e+01 -2.2171695703e+01 -1.6160378501e+01  9.0644146888e+01  7.9662098355e+01 0. 9.
       24     2     1     2     0     0 -3.3430069207e+01  2.2171695703e+01  2.0294887701e+01  8.1756734891e+01  6.8287096993e+01 0. 9.
       13     1     3     0     0     0 -7.4934907278e+00  4.2946967570e+00  2.5252700848e+01  2.6689078060e+01  1.0566000000e-01 0. 9.
      -14     1     3     0     0     0  4.0923559935e+01 -2.6466392460e+01 -4.1413079349e+01  6.3955068828e+01  0.0000000000e+00 0. 9.
       -1     1     4     0     0   102  1.3945371277e+01  1.6871668768e+01 -1.1230039872e+01  2.4603846906e+01  3.3000000000e-01 0. 9.
        2     1     4     0   102     0 -4.7375440484e+01  5.3000269345e+00  3.1524927572e+01  5.7152887985e+01  3.3000000000e-01 0. 9.
#pdf    2   -2  9.006908e-02  8.585019e-02  7.919774e+01  5.723410e-01  5.732882e-01
</event>
<event>
     8  9999  1.000000e+00  8.450944e+01  7.810776e-03  1.280027e-01
        2    -1     0     0   101     0  0.0000000000e+00  0.0000000000e+00  4.4574223211e+02  4.4574223211e+02  0.0000000000e+00 0. 9.
       -2    -1     0     0     0   101  0.0000000000e+00  0.0000000000e+00 -3.0292099870e+01  3.0292099870e+01  0.0000000000e+00 0. 9.
      -24     2     1     2     0     0 -2.1352296312e+00  3.1559367322e+01  4.3307321442e+01  9.4232875074e+01  7.7483919511e+01 0. 9.
       24     2     1     2     0     0  2.1352296312e+00 -3.1559367322e+01  3.7214281080e+02  3.8180145691e+02  7.9256091226e+01 0. 9.
        3     1     3     0   102     0 -1.4323253301e+01  1.3074802341e+01  6.2158226489e+01  6.5115291304e+01  5.0000000000e-01 0. 9.
       -4     1     3     0     0   102  1.2188023670e+01  1.8484564981e+01 -1.8850905047e+01  2.9117583770e+01  1.5000000000e+00 0. 9.
      -13     1     4     0     0     0  1.1038158168e+00  1.9885833661e+01  3.1319907400e+01  3.7116203379e+01  1.0566000000e-01 0. 9.
       14     1     4     0     0     0  1.0314138144e+00 -5.1445200982e+01  3.4082290340e+02  3.4468525353e+02  0.0000000000e+00 0. 9.
#pdf    2   -2  4.548390e-01  3.091031e-02  8.369176e+01  1.678847e-01  6.005003e-01
</event>
<event>
     8  9999  1.000000e+00  9.752759e+01  7.823471e-03  1.252010e-01
       -2    -1     0     0     0   101  0.0000000000e+00  0.0000000000e+00  2.6935505026e+02  2.6935505026e+02  0.0000000000e+00 0. 9.
        1    -1     0     0   101     0  0.0000000000e+00  0.0000000000e+00 -3.9856421177e+01  3.9856421177e+01  0.0000000000e+00 0. 9.
       23     2     1     2     0     0 -6.0794676846e+00 -4.1207588013e+01  1.7099331646e+02  1.9906223331e+02  9.3016306204e+01 0. 9.
      -24     2     1     2     0     0  6.0794676846e+00  4.1207588013e+01  5.8505312624e+01  1.1014923813e+02  8.3516212902e+01 0. 9.
        5     1     3     0   102     0 -3.6225413564e+00 -4.0486400404e+01  1.5957873485e+01  4.3931368630e+01  4.8000000000e+00 0. 9.
       -5     1     3     0     0   102 -2.4569263282e+00 -7.2118760904e-01  1.5503544297e+02  1.5513086468e+02  4.8000000000e+00 0. 9.
        3     1     4     0   103     0 -3.8284469389e+01  2.2150694928e+01  3.5115677766e+01  5.6477559324e+01  5.0000000000e-01 0. 9.
       -4     1     4     0     0   103  4.4363937074e+01  1.9056893085e+01  2.3389634858e+01  5.3671678803e+01  1.5000000000e+00 0. 9.
#pdf   -2    1  2.748521e-01  4.066982e-02  9.332729e+01  1.419629e-02  2.376912e-01
</event>
<event>
     8  9999  1.000000e+00  8.846258e+01  7.814822e-03  1.270952e-01
       -4    -1     0     0     0   101  0.0000000000e+00  0.0000000000e+00  2.4275394084e+02  2.4275394084e+02  0.0000000000e+00 0. 9.
        4    -1     0     0   101     0  0.0000000000e+00  0.0000000000e+00 -3.8174898833e+01  3.8174898833e+01  0.0000000000e+00 0. 9.
      -24     2     1     2     0     0  3.7414620341e+01 -3.2900737509e+00  1.5691493909e+02  1.7975395710e+02  7.9237040455e+01 0. 9.
       24     2     1     2     0     0 -3.7414620341e+01  3.2900737509e+00  4.7664102914e+01  1.0117488258e+02  8.0955615974e+01 0. 9.
        1     1     3     0   102     0  3.4999991321e+01 -3.2036600018e+01  4.9650933941e+01  6.8677997018e+01  3.3000000000e-01 0. 9.
       -2     1     3     0     0   102  2.4146290199e+00  2.8746526267e+01  1.0726400515e+02  1.1107596008e+02  3.3000000000e-01 0. 9.
      -13     1     4     0     0     0  2.4181116637e+01 -9.5452031792e+00  1.7953978463e+01  3.1594205358e+01  1.0566000000e-01 0. 9.
       14     1     4     0     0     0 -6.1595736977e+01  1.2835276930e+01  2.9710124451e+01  6.9580677221e+01  0.0000000000e+00 0. 9.
#pdf   -4    4  2.477081e-01  3.895398e-02  8.768801e+01  4.171465e-03  9.555848e-02
</event>
<event>
     8  9999  1.000000e+00  8.855056e+01  7.814910e-03  1.270756e-01
        2    -1     0     0   101     0  0.0000000000e+00  0.0000000000e+00  5.5880220888e+01  5.5880220888e+01  0.0000000000e+00 0. 9.
       -2    -1     0     0     0   101  0.0000000000e+00  0.0000000000e+00 -1.6656710050e+02  1.6656710050e+02  0.0000000000e+00 0. 9.
      -24     2     1     2     0     0 -1.5538855190e+01  3.9521803018e+01 -1.0078759957e+02  1.3598500915e+02  8.0810602966e+01 0. 9.
       24     2     1     2     0     0  1.5538855190e+01 -3.9521803018e+01 -9.8992800406e+00  8.6462312238e+01  7.4661280178e+01 0. 9.
        1     1     3     0   102     0 -2.9286096422e+01  4.1183693113e+01 -2.0539782933e+01  5.4550560080e+01  3.3000000000e-01 0. 9.
       -2     1     3     0     0   102  1.3747241232e+01 -1.6618900951e+00 -8.0247816638e+01  8.1434449071e+01  3.3000000000e-01 0. 9.
       -3     1     4     0     0   103  1.4971455919e+01 -6.1759817561e+01 -6.0654119607e+00  6.3839320013e+01  5.0000000000e-01 0. 9.
        4     1     4     0   103     0  5.6739927115e-01  2.2238014543e+01 -3.8338680799e+00  2.2622992225e+01  1.5000000000e+00 0. 9.
#pdf    2   -2  5.702063e-02  1.699664e-01  8.589375e+01  5.793087e-01  5.243914e-01
</event>
<event>
     8  9999  1.000000e+00  1.430713e+02  7.857629e-03  1.182768e-01
        2    -1     0     0   101     0  0.0000000000e+00  0.0000000000e+00  1.8283859684e+02  1.8283859684e+02  0.0000000000e+00 0. 9.
       -2    -1     0     0     0   101  0.0000000000e+00  0.0000000000e+00 -1.3561770410e+02  1.3561770410e+02  0.0000000000e+00 0. 9.
      -24     2     1     2     0     0  6.2604940222e+01  9.6495535810e+01 -4.2452110583e+01  1.5194134860e+02  8.9739761261e+01 0. 9.
       24     2     1     2     0     0 -6.2604940222e+01 -9.6495535810e+01  8.9673003321e+01  1.6651495234e+02  8.0344351730e+01 0. 9.
       11     1     3     0     0     0  1.4994651149e+01  2.3478888959e+01  2.8271968760e+01  3.9691334163e+01  5.1100000000e-04 0. 9.
      -12     1     3     0     0     0  4.7610289074e+01  7.3016646851e+01 -7.0724079343e+01  1.1225001444e+02  0.0000000000e+00 0. 9.
       -3     1     4     0     0   102 -1.9546219173e+01 -2.4244970341e+00 -1.0649246765e+01  2.2396190000e+01  5.0000000000e-01 0. 9.
        4     1     4     0   102     0 -4.3058721049e+01 -9.4071038776e+01  1.0032225009e+02  1.4411876234e+02  1.5000000000e+00 0. 9.
#pdf    2   -2  1.865700e-01  1.383854e-01  1.403067e+02  4.933690e-01  5.387929e-01
</event>
<event>
     8  9999  1.000000e+00  8.826491e+01  7.814624e-03  1.271393e-01
        1    -1     0     0   101     0  0.0000000000e+00  0.0000000000e+00  4.6829902431e+01  4.6829902431e+01  0.0000000000e+00 0. 9.
       -2    -1     0     0     0   101  0.0000000000e+00  0.0000000000e+00 -1.6691540157e+02  1.6691540157e+02  0.0000000000e+00 0. 9.
       23     2     1     2     0     0  5.1891830209e+00 -2.0216124686e+01 -5.8973525214e+01  1.0958743647e+02  8.9977276230e+01 0. 9.
      -24     2     1     2     0     0 -5.1891830209e+00  2.0216124686e+01 -6.1111973926e+01  1.0415786753e+02  8.1722510327e+01 0. 9.
       16     1     3     0     0     0  3.2775031407e+00 -1.6082263028e+01  2.2575576997e+01  2.7911250199e+01  0.0000000000e+00 0. 9.
      -16     1     3     0     0     0  1.9116798802e+00 -4.1338616589e+00 -8.1549102211e+01  8.1676186269e+01  0.0000000000e+00 0. 9.
       11     1     4     0     0     0  1.0781779929e+01 -2.8416199590e+01 -3.6086931973e+01  4.7180439136e+01  5.1100000000e-04 0. 9.
      -12     1     4     0     0     0 -1.5970962950e+01  4.8632324276e+01 -2.5025041953e+01  5.6977428398e+01  0.0000000000e+00 0. 9.
#pdf    1   -2  4.778561e-02  1.703218e-01  8.434565e+01  4.224198e-01  5.245707e-01
</event>
<event>
     8  9999  1.000000e+00  9.631899e+01  7.822364e-03  1.254400e-01
        2    -1     0     0   101     0  0.0000000000e+00  0.0000000000e+00  2.3951329975e+02  2.3951329975e+02  0.0000000000e+00 0. 9.
       -1    -1     0     0     0   101  0.0000000000e+00  0.0000000000e+00 -7.2936934800e+01  7.2936934800e+01  0.0000000000e+00 0. 9.
       23     2     1     2     0     0 -4.5778165592e+01 -2.2784862195e+01 -1.9707654436e+01  1.0594401776e+02  9.0669470421e+01 0. 9.
       24     2     1     2     0     0  4.5778165592e+01  2.2784862195e+01  1.8628401939e+02  2.0650621679e+02  7.2995145743e+01 0. 9.
        4     1     3     0   102     0  1.7786071690e+00  5.2228824827e+00 -4.4895614987e+01  4.5258238918e+01  1.5000000000e+00 0. 9.
       -4     1     3     0     0   102 -4.7556772761e+01 -2.8007744678e+01  2.5187960551e+01  6.0685778846e+01  1.5000000000e+00 0. 9.
       -3     1     4     0     0   103  5.1188740790e+00 -2.5354463111e+01  4.7772831009e+01  5.4328123970e+01  5.0000000000e-01 0. 9.
        4     1     4     0   103     0  4.0659291513e+01  4.8139325306e+01  1.3851118838e+02  1.5217809282e+02  1.5000000000e+00 0. 9.
#pdf    2   -1  2.444013e-01  7.442544e-02  8.912397e+01  4.361659e-01  3.770623e-01
</event>
<event>
     8  9999  1.000000e+00  1.050303e+02  7.830054e-03  1.237993e-01
        2    -1     0     0   101     0  0.0000000000e+00  0.0000000000e+00  2.0564619710e+02  2.0564619710e+02  0.0000000000e+00 0. 9.
       -2    -1     0     0     0   101  0.0000000000e+00  0.0000000000e+00 -1.4885656330e+02  1.4885656330e+02  0.0000000000e+00 0. 9.
      -24     2     1     2     0     0  1.9835063894e+01  6.4552257178e+01 -1.1338616480e+02  1.5441488832e+02  8.0169269064e+01 0. 9.
       24     2     1     2     0     0 -1.9835063894e+01 -6.4552257178e+01  1.7017579860e+02  2.0008787208e+02  8.0715119127e+01 0. 9.
        3     1     3     0   102     0  5.6586549981e+00 -1.5046783186e+01 -1.2084992557e+00  1.6128748590e+01  5.0000000000e-01 0. 9.
       -4     1     3     0     0   102  1.4176408896e+01  7.9599040364e+01 -1.1217766554e+02  1.3828613973e+02  1.5000000000e+00 0. 9.
       -1     1     4     0     0   103  5.8256417533e+00  1.6326917990e+01  1.3745336755e+01  2.2125766323e+01  3.3000000000e-01 0. 9.
        2     1     4     0   103     0 -2.5660705647e+01 -8.0879175168e+01  1.5643046185e+02  1.7796210575e+02  3.3000000000e-01 0. 9.
#pdf    2   -2  2.098431e-01  1.518945e-01  1.048214e+02  4.750479e-01  5.349903e-01
</event>
<event>
     8  9999  1.000000e+00  9.631274e+01  7.822359e-03  1.254412e-01
        1    -1     0     0   101     0  0.0000000000e+00  0.0000000000e+00  1.3208517619e+02  1.3208517619e+02  0.0000000000e+00 0. 9.
       -1    -1     0     0     0   101  0.0000000000e+00  0.0000000000e+00 -7.1629337992e+01  7.1629337992e+01  0.0000000000e+00 0. 9.
      -24     2     1     2     0     0  2.2600029040e+01  4.0963059999e+01  1.7371564588e+01  1.0106174598e+02  8.7880439506e+01 0. 9.
       24     2     1     2     0     0 -2.2600029040e+01 -4.0963059999e+01  4.3084273607e+01  1.0265276820e+02  8.0576687628e+01 0. 9.
       11     1     3     0     0     0  2.9427155175e+00  5.4437238865e+01  4.0451946414e+01  6.7885436721e+01  5.1100000000e-04 0. 9.
      -12     1     3     0     0     0  1.9657313522e+01 -1.3474178866e+01 -2.3080381826e+01  3.3176309262e+01  0.0000000000e+00 0. 9.
       -3     1     4     0     0   102 -5.1630044096e+01 -3.6702806278e+01  3.4029662029e+01  7.1909841745e+01  5.0000000000e-01 0. 9.
        4     1     4     0   102     0  2.9030015057e+01 -4.2602537211e+00  9.0546115782e+00  3.0742926451e+01  1.5000000000e+00 0. 9.
#pdf    1   -1  1.347808e-01  7.309116e-02  9.317369e+01  3.012261e-01  3.786072e-01
</event>
<event>
     8  9999  1.000000e+00  9.309491e+01  7.819345e-03  1.260971e-01
        3    -1     0     0   101     0  0.0000000000e+00  0.0000000000e+00  3.7445507021e+01  3.7445507021e+01  0.0000000000e+00 0. 9.
       -2    -1     0     0     0   101  0.0000000000e+00  0.0000000000e+00 -2.6320874862e+02  2.6320874862e+02  0.0000000000e+00 0. 9.
       23     2     1     2     0     0 -3.4991309462e+01  1.5599766198e+01 -6.5713266237e+01  1.1757670187e+02  8.9656583812e+01 0. 9.
      -24     2     1     2     0     0  3.4991309462e+01 -1.5599766198e+01 -1.6004997536e+02  1.8307755377e+02  8.0210046981e+01 0. 9.
        5     1     3     0   102     0 -6.2212521315e+01  1.8788691203e+00 -5.9210214570e+01  8.6039627306e+01  4.8000000000e+00 0. 9.
       -5     1     3     0     0   102  2.7221211853e+01  1.3720897078e+01 -6.5030516669e+00  3.1537074568e+01  4.8000000000e+00 0. 9.
        3     1     4     0   103     0  5.7863759917e+01  4.9042899119e+00 -1.0134142996e+02  1.1680155049e+02  5.0000000000e-01 0. 9.
       -4     1     4     0     0   103 -2.2872450455e+01 -2.0504056110e+01 -5.8708545404e+01  6.6276003276e+01  1.5000000000e+00 0. 9.
#pdf    3   -2  3.820970e-02  2.685804e-01  8.888980e+01  1.565150e-01  4.032380e-01
</event>
<event>
     8  9999  1.000000e+00  8.722320e+01  7.813573e-03  1.273739e-01
        2    -1     0     0   101     0  0.0000000000e+00  0.0000000000e+00  3.9372376724e+01  3.9372376724e+01  0.0000000000e+00 0. 9.
       -2    -1     0     0     0   101  0.0000000000e+00  0.0000000000e+00 -2.2503432374e+02  2.2503432374e+02  0.0000000000e+00 0. 9.
      -24     2     1     2     0     0 -3.5808402467e+01  1.3286532086e+01 -1.4250902607e+02  1.6706966768e+02  7.8387994765e+01 0. 9.
       24     2     1     2     0     0  3.5808402467e+01 -1.3286532086e+01 -4.3152920945e+01  9.7337032788e+01  7.8444564782e+01 0. 9.
        3     1     3     0   102     0  8.4328756525e+00  5.8287621021e+00 -1.1273829063e+02  1.1320450536e+02  5.0000000000e-01 0. 9.
       -4     1     3     0     0   102 -4.4241278120e+01  7.4577699834e+00 -2.9770735444e+01  5.3865162319e+01  1.5000000000e+00 0. 9.
       -1     1     4     0     0   103  1.4539463323e+01 -2.4525687752e+01 -6.1031124418e+01  6.7363286745e+01  3.3000000000e-01 0. 9.
        2     1     4     0   103     0  2.1268939144e+01  1.1239155666e+01  1.7878203474e+01  2.9973746043e+01  3.3000000000e-01 0. 9.
#pdf    2   -2  4.017589e-02  2.296269e-01  8.719777e+01  5.888787e-01  4.563449e-01
</event>
<event>
     8  9999  1.000000e+00  8.532349e+01  7.811624e-03  1.278113e-01
        2    -1     0     0   101     0  0.0000000000e+00  0.0000000000e+00  1.9545467851e+02  1.9545467851e+02  0.0000000000e+00 0. 9.
       -2    -1     0     0     0   101  0.0000000000e+00  0.0000000000e+00 -1.1555257500e+02  1.1555257500e+02  0.0000000000e+00 0. 9.
       23     2     1     2     0     0 -1.7855515629e+00  1.2102016048e+01 -8.7854197157e+01  1.2337428785e+02  8.5750848152e+01 0. 9.
       23     2     1     2     0     0  1.7855515629e+00 -1.2102016048e+01  1.6775630067e+02  1.8763296565e+02  8.3152308429e+01 0. 9.
        4     1     3     0   102     0 -3.4788108888e+01  2.6600128623e+01 -7.1280522901e+01  8.3671633830e+01  1.5000000000e+00 0. 9.
       -4     1     3     0     0   102  3.3002557325e+01 -1.4498112575e+01 -1.6573674256e+01  3.9702654024e+01  1.5000000000e+00 0. 9.
        2     1     4     0   103     0 -3.0965079952e+01 -2.4882730992e+01  1.3047675301e+02  1.3639016994e+02  3.3000000000e-01 0. 9.
       -2     1     4     0     0   103  3.2750631515e+01  1.2780714944e+01  3.7279547654e+01  5.1242795712e+01  3.3000000000e-01 0. 9.
#pdf    2   -2  1.994435e-01  1.179108e-01  8.404733e+01  4.943484e-01  5.618116e-01
</event>
<event>
     8  9999  1.000000e+00  1.154402e+02  7.838464e-03  1.220569e-01
        2    -1     0     0   101     0  0.0000000000e+00  0.0000000000e+00  1.2094673892e+02  1.2094673892e+02  0.0000000000e+00 0. 9.
       -2    -1     0     0     0   101  0.0000000000e+00  0.0000000000e+00 -1.4858225912e+02  1.4858225912e+02  0.0000000000e+00 0. 9.
      -24     2     1     2     0     0  2.5253132416e+01  7.8245198699e+01 -8.2451343204e+01  1.4326953535e+02  8.3473971672e+01 0. 9.
       24     2     1     2     0     0 -2.5253132416e+01 -7.8245198699e+01  5.4815823008e+01  1.2625946269e+02  7.8591638557e+01 0. 9.
        1     1     3     0   102     0 -1.3675179133e+01  6.0652800058e+01 -1.5883737506e+01  6.4173005979e+01  3.3000000000e-01 0. 9.
       -2     1     3     0     0   102  3.8928311550e+01  1.7592398641e+01 -6.6567605698e+01  7.9096529370e+01  3.3000000000e-01 0. 9.
       -1     1     4     0     0   103 -2.1615003252e+01 -3.9917352860e+01 -1.3914602819e+01  4.7479769339e+01  3.3000000000e-01 0. 9.
        2     1     4     0   103     0 -3.6381291645e+00 -3.8327845839e+01  6.8730425827e+01  7.8779693353e+01  3.3000000000e-01 0. 9.
#pdf    2   -2  1.234150e-01  1.516146e-01  1.137395e+02  5.531775e-01  5.332072e-01
</event>
<event>
     8  9999  1.000000e+00  1.215565e+02  7.843066e-03  1.211256e-01
        1    -1     0     0   101     0  0.0000000000e+00  0.0000000000e+00  1.0354427602e+02  1.0354427602e+02  0.0000000000e+00 0. 9.
       -1    -1     0     0     0   101  0.0000000000e+00  0.0000000000e+00 -1.4338844000e+02  1.4338844000e+02  0.0000000000e+00 0. 9.
      -24     2     1     2     0     0  7.2964454243e+01  5.3794292743e+01 -1.1422650603e+01  1.2233216321e+02  8.1345213100e+01 0. 9.
       24     2     1     2     0     0 -7.2964454243e+01 -5.3794292743e+01 -2.8421513377e+01  1.2460055281e+02  8.0621819766e+01 0. 9.
       11     1     3     0     0     0  6.8531410118e+01  2.8071153372e+01  2.4430927913e+01  7.7983421721e+01  5.1100000000e-04 0. 9.
      -12     1     3     0     0     0  4.4330441254e+00  2.5723139371e+01 -3.5853578516e+01  4.4348741490e+01  0.0000000000e+00 0. 9.
       -3     1     4     0     0   102 -7.8774422136e+01 -1.3055916420e+01 -2.2791309411e+01  8.3039510603e+01  5.0000000000e-01 0. 9.
        4     1     4     0   102     0  5.8099678933e+00 -4.0738376323e+01 -5.6302039664e+00  4.1561042204e+01  1.5000000000e+00 0. 9.
#pdf    1   -1  1.056574e-01  1.463147e-01  1.213158e+02  3.321381e-01  2.836158e-01
</event>
<event>
     8  9999  1.000000e+00  9.613502e+01  7.822195e-03  1.254767e-01
        1    -1     0     0   101     0  0.0000000000e+00  0.0000000000e+00  2.8029909708e+02  2.8029909708e+02  0.0000000000e+00 0. 9.
       -1    -1     0     0     0   101  0.0000000000e+00  0.0000000000e+00 -7.3028134866e+01  7.3028134866e+01  0.0000000000e+00 0. 9.
      -24     2     1     2     0     0 -2.4743702890e+01 -3.8287463715e+01  2.3494428298e+02  2.5422749292e+02  8.5759088976e+01 0. 9.
       24     2     1     2     0     0  2.4743702890e+01  3.8287463715e+01 -2.7673320764e+01  9.9099739025e+01  8.3527030848e+01 0. 9.
        3     1     3     0   102     0 -4.6969683726e+01 -1.3533633044e+01  6.6561714754e+01  8.2583426205e+01  5.0000000000e-01 0. 9.
       -4     1     3     0     0   102  2.2225980835e+01 -2.4753830671e+01  1.6838256823e+02  1.7164406672e+02  1.5000000000e+00 0. 9.
       -1     1     4     0     0   103  4.6840016344e+01  4.1362357945e+01 -3.9420541340e+01  7.3884502877e+01  3.3000000000e-01 0. 9.
        2     1     4     0   103     0 -2.2096313454e+01 -3.0748942293e+00  1.1747220575e+01  2.5215236148e+01  3.3000000000e-01 0. 9.
#pdf    1   -1  2.860195e-01  7.451850e-02  9.515748e+01  1.483243e-01  3.763510e-01
</event>
<event>
     8  9999  1.000000e+00  1.139441e+02  7.837302e-03  1.222945e-01
        2    -1     0     0   101     0  0.0000000000e+00  0.0000000000e+00  7.7644349217e+01  7.7644349217e+01  0.0000000000e+00 0. 9.
       -2    -1     0     0     0   101  0.0000000000e+00  0.0000000000e+00 -5.3101611776e+02  5.3101611776e+02  0.0000000000e+00 0. 9.
      -24     2     1     2     0     0  7.7441446490e+01 -2.1884952514e+01 -4.7837329076e+02  4.9167921455e+02  8.0195485702e+01 0. 9.
       24     2     1     2     0     0 -7.7441446490e+01  2.1884952514e+01  2.5001522216e+01  1.1698125243e+02  8.1138206322e+01 0. 9.
        1     1     3     0   102     0  6.1844044259e+01  1.8308853430e+01 -2.0441692201e+02  2.1435084985e+02  3.3000000000e-01 0. 9.
       -2     1     3     0     0   102  1.5597402231e+01 -4.0193805945e+01 -2.7395636875e+02  2.7732836470e+02  3.3000000000e-01 0. 9.
      -15     1     4     0     0     0 -4.2591154905e+01 -2.5205246900e+01 -7.3399396708e+00  5.0063393366e+01  1.7769900000e+00 0. 9.
       16     1     4     0     0     0 -3.4850291585e+01  4.7090199414e+01  3.2341461887e+01  6.6917859061e+01  0.0000000000e+00 0. 9.
#pdf    2   -2  7.922893e-02  5.418532e-01  1.136109e+02  5.716756e-01  8.795532e-02
</event>
<event>
     8  9999  1.000000e+00  1.059073e+02  7.830793e-03  1.236440e-01
        2    -1     0     0   101     0  0.0000000000e+00  0.0000000000e+00  4.7349385933e+02  4.7349385933e+02  0.0000000000e+00 0. 9.
       -2    -1     0     0     0   101  0.0000000000e+00  0.0000000000e+00 -7.0265015147e+01  7.0265015147e+01  0.0000000000e+00 0. 9.
       23     2     1     2     0     0  3.2555143614e+01 -2.5547022462e+01  4.2675209275e+02  4.4133629420e+02  1.0463215652e+02 0. 9.
       23     2     1     2     0     0 -3.2555143614e+01  2.5547022462e+01 -2.3523248562e+01  1.0242258028e+02  9.0689326805e+01 0. 9.
       16     1     3     0     0     0  5.5717930419e+01 -1.2985031280e-01  1.1600379664e+02  1.2869104657e+02  0.0000000000e+00 0. 9.
      -16     1     3     0     0     0 -2.3162786805e+01 -2.5417172149e+01  3.1074829611e+02  3.1264524763e+02  0.0000000000e+00 0. 9.
        4     1     4     0   102     0 -4.7616445800e+01  3.4608684835e+01  1.4380524643e+01  6.0614655535e+01  1.5000000000e+00 0. 9.
       -4     1     4     0     0   102  1.5061302186e+01 -9.0616623726e+00 -3.7903773206e+01  4.1807924748e+01  1.5000000000e+00 0. 9.
#pdf    2   -2  4.831570e-01  7.169900e-02  9.968471e+01  1.365957e-01  5.747293e-01
</event>
<event>
     8  9999  1.000000e+00  1.183352e+02  7.840672e-03  1.216083e-01
        1    -1     0     0   101     0  0.0000000000e+00  0.0000000000e+00  3.0293349115e+02  3.0293349115e+02  0.0000000000e+00 0. 9.
       -2    -1     0     0     0   101  0.0000000000e+00  0.0000000000e+00 -6.6144270152e+01  6.6144270152e+01  0.0000000000e+00 0. 9.
       23     2     1     2     0     0 -8.1684734070e+01  1.0395156055e+01  2.0360058680e+01  1.2442097683e+02  9.1025229673e+01 0. 9.
      -24     2     1     2     0     0  8.1684734070e+01 -1.0395156055e+01  2.1642916232e+02  2.4465678447e+02  7.8961413592e+01 0. 9.
       12     1     3     0     0     0 -9.3558034232e+01  1.8168256074e+00 -6.5266857221e+00  9.3803007687e+01  0.0000000000e+00 0. 9.
      -12     1     3     0     0     0  1.1873300162e+01  8.5783304478e+00  2.6886744403e+01  3.0617969145e+01  0.0000000000e+00 0. 9.
        3     1     4     0   102     0 -1.0393083729e+01 -3.9279631864e+00  7.4632400986e+01  7.5456546178e+01  5.0000000000e-01 0. 9.
       -4     1     4     0     0   102  9.2077817798e+01 -6.4671928688e+00  1.4179676134e+02  1.6920023830e+02  1.5000000000e+00 0. 9.
#pdf    1   -2  3.091158e-01  6.749415e-02  1.140849e+02  1.272396e-01  5.752686e-01
</event>
<event>
     8  9999  1.000000e+00  1.012362e+02  7.826785e-03  1.244912e-01
        2    -1     0     0   101     0  0.0000000000e+00  0.0000000000e+00  3.2574498075e+02  3.2574498075e+02  0.0000000000e+00 0. 9.
       -2    -1     0     0     0   101  0.0000000000e+00  0.0000000000e+00 -3.9911043322e+01  3.9911043322e+01  0.0000000000e+00 0. 9.
      -24     2     1     2     0     0 -6.0932362510e+01 -1.5586124716e+01  6.0128182451e+01  1.1876034300e+02  8.0826608619e+01 0. 9.
       24     2     1     2     0     0  6.0932362510e+01  1.5586124716e+01  2.2570575497e+02  2.4689568106e+02  7.7837712041e+01 0. 9.
        3     1     3     0   102     0  7.7268482122e+00 -2.7602235421e+01  3.3592946108e+01  4.4162468361e+01  5.0000000000e-01 0. 9.
       -4     1     3     0     0   102 -6.8659210722e+01  1.2016110705e+01  2.6535236343e+01  7.4597874643e+01  1.5000000000e+00 0. 9.
       -3     1     4     0     0   103 -5.7740801887e+00  2.4361785492e+01  2.5750062924e+01  3.5918690608e+01  5.0000000000e-01 0. 9.
        4     1     4     0   103     0  6.6706442699e+01 -8.7756607759e+00  1.9995569205e+02  2.1097699046e+02  1.5000000000e+00 0. 9.
#pdf    2   -2  3.323928e-01  4.072555e-02  1.000719e+02  3.102534e-01  5.894651e-01
</event>
<event>
     8  9999  1.000000e+00  8.211770e+01  7.808237e-03  1.285792e-01
        2    -1     0     0   101     0  0.0000000000e+00  0.0000000000e+00  5.7434682183e+01  5.7434682183e+01  0.0000000000e+00 0. 9.
       -2    -1     0     0     0   101  0.0000000000e+00  0.0000000000e+00 -2.5014291303e+02  2.5014291303e+02  0.0000000000e+00 0. 9.
      -24     2     1     2     0     0  3.0014691278e+00 -1.6235616829e+01 -2.0880026244e+02  2.2465324521e+02  8.1233779418e+01 0. 9.
       24     2     1     2     0     0 -3.0014691278e+00  1.6235616829e+01  1.6092031594e+01  8.2924350001e+01  7.9654819512e+01 0. 9.
        3     1     3     0   102     0  5.4337712849e+00  1.4538759542e+00  6.4989530709e+00  8.6096467224e+00  5.0000000000e-01 0. 9.
       -4     1     3     0     0   102 -2.4323021571e+00 -1.7689492783e+01 -2.1529921551e+02  2.1604359849e+02  1.5000000000e+00 0. 9.
       -3     1     4     0     0   103 -3.4038726619e+01  3.0952244367e+01  1.5557251418e+01  4.8569068478e+01  5.0000000000e-01 0. 9.
        2     1     4     0   103     0  3.1037257491e+01 -1.4716627538e+01  5.3478017554e-01  3.4355281523e+01  3.3000000000e-01 0. 9.
#pdf    2   -2  5.860682e-02  2.552479e-01  8.134798e+01  5.788315e-01  4.247582e-01
</event>
<event>
     8  9999  1.000000e+00  1.113658e+02  7.835264e-03  1.227136e-01
        1    -1     0     0   101     0  0.0000000000e+00  0.0000000000e+00  7.7285781405e+01  7.7285781405e+01  0.0000000000e+00 0. 9.
       -1    -1     0     0     0   101  0.0000000000e+00  0.0000000000e+00 -1.6492582084e+02  1.6492582084e+02  0.0000000000e+00 0. 9.
      -24     2     1     2     0     0  4.2018996297e+01  2.7932928794e+01 -3.0148048676e+01  1.0000962402e+02  8.0914618562e+01 0. 9.
       24     2     1     2     0     0 -4.2018996297e+01 -2.7932928794e+01 -5.7491990759e+01  1.4220197822e+02  1.1987589019e+02 0. 9.
        1     1     3     0   102     0  5.1761801147e+01 -1.0373300608e+01 -2.9446574903e+01  6.0449144717e+01  3.3000000000e-01 0. 9.
       -4     1     3     0     0   102 -9.7428048503e+00  3.8306229401e+01 -7.0147377305e-01  3.9560479304e+01  1.5000000000e+00 0. 9.
       -3     1     4     0     0   103  3.5607526783e+01 -1.7361593208e+00 -4.7883446899e+01  5.9699118082e+01  5.0000000000e-01 0. 9.
        4     1     4     0   103     0 -7.7626523080e+01 -2.6196769473e+01 -9.6085438597e+00  8.2502860141e+01  1.5000000000e+00 0. 9.
#pdf    1   -1  7.886304e-02  1.682917e-01  9.535733e+01  3.701619e-01  2.630909e-01
</event>
<event>
     8  9999  1.000000e+00  9.644848e+01  7.822484e-03  1.254142e-01
        2    -1     0     0   101     0  0.0000000000e+00  0.0000000000e+00  6.7907877462e+01  6.7907877462e+01  0.0000000000e+00 0. 9.
       -2    -1     0     0     0   101  0.0000000000e+00  0.0000000000e+00 -1.4145269739e+02  1.4145269739e+02  0.0000000000e+00 0. 9.
      -24     2     1     2     0     0  1.4316553031e+01 -5.6567851973e+01 -5.5921987807e+01  1.1300224125e+02  7.8976909542e+01 0. 9.
       24     2     1     2     0     0 -1.4316553031e+01  5.6567851973e+01 -1.7622832124e+01  9.6358333601e+01  7.4628939927e+01 0. 9.
        3     1     3     0   102     0  3.9023639898e+01 -3.7683389371e+00 -2.9035209874e+01  4.8788710392e+01  5.0000000000e-01 0. 9.
       -4     1     3     0     0   102 -2.4707086867e+01 -5.2799513036e+01 -2.6886777932e+01  6.4213530863e+01  1.5000000000e+00 0. 9.
       -3     1     4     0     0   103  7.0518044375e+00 -5.7898931002e+00 -2.8143533714e+01  2.9589851264e+01  5.0000000000e-01 0. 9.
        4     1     4     0   103     0 -2.1368357469e+01  6.2357745074e+01  1.0520701590e+01  6.6768482337e+01  1.5000000000e+00 0. 9.
#pdf    2   -2  6.929375e-02  1.443395e-01  9.473312e+01  5.756248e-01  5.433171e-01
</event>
<event>
     8  9999  1.000000e+00  8.829258e+01  7.814652e-03  1.271331e-01
        2    -1     0     0   101     0  0.0000000000e+00  0.0000000000e+00  5.2617421135e+01  5.2617421135e+01  0.0000000000e+00 0. 9.
       -2    -1     0     0     0   101  0.0000000000e+00  0.0000000000e+00 -1.5650864496e+02  1.5650864496e+02  0.0000000000e+00 0. 9.
      -24     2     1     2     0     0 -3.6723246180e+01 -7.7955783324e+00 -7.6478447325e+01  1.1734367616e+02  8.0692115962e+01 0. 9.
       24     2     1     2     0     0  3.6723246180e+01  7.7955783324e+00 -2.7412776503e+01  9.1782389935e+01  7.9140248515e+01 0. 9.
        1     1     3     0   102     0  1.1702531905e+01  1.3699549801e+01  6.2753329956e+00  1.9081813906e+01  3.3000000000e-01 0. 9.
       -2     1     3     0     0   102 -4.8425778085e+01 -2.1495128134e+01 -8.2753780321e+01  9.8261862256e+01  3.3000000000e-01 0. 9.
      -15     1     4     0     0     0  2.4961354296e+01  3.1629621847e+01  1.3898835834e+01  4.2659553649e+01  1.7769900000e+00 0. 9.
       16     1     4     0     0     0  1.1761891884e+01 -2.3834043515e+01 -4.1311612337e+01  4.9122836286e+01  0.0000000000e+00 0. 9.
#pdf    2   -2  5.369125e-02  1.597027e-01  8.759307e+01  5.805357e-01  5.330533e-01
</event>
<event>
     8  9999  1.000000e+00  9.992488e+01  7.825627e-03  1.247383e-01
        2    -1     0     0   101     0  0.0000000000e+00  0.0000000000e+00  2.4773113610e+01  2.4773113610e+01  0.0000000000e+00 0. 9.
       -2    -1     0     0     0   101  0.0000000000e+00  0.0000000000e+00 -4.0368987796e+02  4.0368987796e+02  0.0000000000e+00 0. 9.
      -24     2     1     2     0     0 -4.0101743673e+01 -4.4790770437e+01 -1.9806476294e+02  2.2187380657e+02  7.9899766983e+01 0. 9.
       24     2     1     2     0     0  4.0101743673e+01  4.4790770437e+01 -1.8085200142e+02  2.0658918500e+02  7.9732565371e+01 0. 9.
       15     1     3     0     0     0  1.1694448987e+01  1.6140625587e+01 -3.8461591470e+01  4.3355872074e+01  1.7769900000e+00 0. 9.
      -16     1     3     0     0     0 -5.1796192660e+01 -6.0931396024e+01 -1.5960317147e+02  1.7851793450e+02  0.0000000000e+00 0. 9.
      -15     1     4     0     0     0 -1.7494527754e+01  5.7657442445e+00 -9.1464372880e+01  9.3317691291e+01  1.7769900000e+00 0. 9.
       16     1     4     0     0     0  5.7596271427e+01  3.9025026193e+01 -8.9387628536e+01  1.1327149371e+02  0.0000000000e+00 0. 9.
#pdf    2   -2  2.527869e-02  4.119284e-01  9.985812e+01  6.168664e-01  2.095460e-01
</event>
<event>
     8  9999  1.000000e+00  1.422351e+02  7.857104e-03  1.183770e-01
        1    -1     0     0   101     0  0.0000000000e+00  0.0000000000e+00  5.7477179092e+01  5.7477179092e+01  0.0000000000e+00 0. 9.
       -1    -1     0     0     0   101  0.0000000000e+00  0.0000000000e+00 -5.3120138148e+02  5.3120138148e+02  0.0000000000e+00 0. 9.
      -24     2     1     2     0     0  9.2899483141e+01  7.3633518168e+01 -6.5748510870e+01  1.5657584913e+02  7.8364027989e+01 0. 9.
       24     2     1     2     0     0 -9.2899483141e+01 -7.3633518168e+01 -4.0797569152e+02  4.3210271145e+02  7.8844019450e+01 0. 9.
        3     1     3     0   102     0 -1.2702891956e+01  2.7243618374e+00 -1.4380886742e+01  1.9386735542e+01  5.0000000000e-01 0. 9.
       -4     1     3     0     0   102  1.0560237510e+02  7.0909156331e+01 -5.1367624127e+01  1.3718911358e+02  1.5000000000e+00 0. 9.
       -1     1     4     0     0   103 -1.6189035039e+01 -3.4868049647e+01 -2.4357287112e+02  2.4658815500e+02  3.3000000000e-01 0. 9.
        2     1     4     0   103     0 -7.6710448102e+01 -3.8765468522e+01 -1.6440282040e+02  1.8551455645e+02  3.3000000000e-01 0. 9.
#pdf    1   -1  5.865018e-02  5.420422e-01  1.421025e+02  3.993079e-01  2.053112e-02
</event>
<event>
     8  9999  1.000000e+00  8.681412e+01  7.813157e-03  1.274670e-01
        1    -1     0     0   101     0  0.0000000000e+00  0.0000000000e+00  2.4421595759e+02  2.4421595759e+02  0.0000000000e+00 0. 9.
       -1    -1     0     0     0   101  0.0000000000e+00  0.0000000000e+00 -4.3643132299e+01  4.3643132299e+01  0.0000000000e+00 0. 9.
      -24     2     1     2     0     0 -2.3037924042e+01  7.4904491119e+00  1.7640727778e+02  1.9571183403e+02  8.1220327228e+01 0. 9.
       24     2     1     2     0     0  2.3037924042e+01 -7.4904491119e+00  2.4165547508e+01  9.2147255852e+01  8.5558695074e+01 0. 9.
        1     1     3     0   102     0 -3.8794299263e+01 -2.6391554126e+01  1.0828091798e+02  1.1801007535e+02  3.3000000000e-01 0. 9.
       -2     1     3     0     0   102  1.5756375221e+01  3.3882003238e+01  6.8126359796e+01  7.7701758684e+01  3.3000000000e-01 0. 9.
       -1     1     4     0     0   103  4.4184912057e+01  2.2397857476e+01  2.4971093085e+00  4.9601561748e+01  3.3000000000e-01 0. 9.
        2     1     4     0   103     0 -2.1146988015e+01 -2.9888306588e+01  2.1668438199e+01  4.2545694104e+01  3.3000000000e-01 0. 9.
#pdf    1   -1  2.492000e-01  4.453381e-02  8.475609e+01  1.827034e-01  4.295300e-01
</event>
<event>
     8  9999  1.000000e+00  8.658601e+01  7.812924e-03  1.275192e-01
        1    -1     0     0   101     0  0.0000000000e+00  0.0000000000e+00  1.6142087320e+02  1.6142087320e+02  0.0000000000e+00 0. 9.
       -1    -1     0     0     0   101  0.0000000000e+00  0.0000000000e+00 -4.6702147821e+01  4.6702147821e+01  0.0000000000e+00 0. 9.
      -24     2     1     2     0     0 -1.5036617391e+01 -2.7146773324e+01  4.8614640386e+01  9.7269939602e+01  7.8326309282e+01 0. 9.
       24     2     1     2     0     0  1.5036617391e+01  2.7146773324e+01  6.6104084997e+01  1.1085308142e+02  8.3400290426e+01 0. 9.
        3     1     3     0   102     0 -3.5228266841e+01  1.4369286443e+01  2.1199987107e+01  4.3556820715e+01  5.0000000000e-01 0. 9.
       -4     1     3     0     0   102  2.0191649450e+01 -4.1516059768e+01  2.7414653280e+01  5.3713118887e+01  1.5000000000e+00 0. 9.
      -13     1     4     0     0     0 -1.2685251097e+01 -2.6064301375e+01  2.1542246119e+01  3.6115688190e+01  1.0566000000e-01 0. 9.
       14     1     4     0     0     0  2.7721868488e+01  5.3211074699e+01  4.4561838878e+01  7.4737393233e+01  0.0000000000e+00 0. 9.
#pdf    1   -1  1.647152e-01  4.765525e-02  8.424997e+01  2.692561e-01  4.226951e-01
</event>
<event>
     8  9999  1.000000e+00  9.082507e+01  7.817157e-03  1.265778e-01
        2    -1     0     0   101     0  0.0000000000e+00  0.0000000000e+00  1.0890997498e+02  1.0890997498e+02  0.0000000000e+00 0. 9.
       -2    -1     0     0     0   101  0.0000000000e+00  0.0000000000e+00 -1.6334694496e+02  1.6334694496e+02  0.0000000000e+00 0. 9.
       23     2     1     2     0     0  2.5016584519e+00  2.6487503543e+01 -1.2684033195e+02  1.5572589164e+02  8.6337925500e+01 0. 9.
       23     2     1     2     0     0 -2.5016584519e+00 -2.6487503543e+01  7.2403361968e+01  1.1653102829e+02  8.7346365649e+01 0. 9.
        1     1     3     0   102     0 -2.7322009620e+01  3.3762523949e+01 -2.6697479089e+01  5.0982982678e+01  3.3000000000e-01 0. 9.
       -1     1     3     0     0   102  2.9823668072e+01 -7.2750204055e+00 -1.0014285286e+02  1.0474290896e+02  3.3000000000e-01 0. 9.
        3     1     4     0   103     0  1.9815727816e+01 -1.8567382195e+01  8.5329147943e+01  8.9547329603e+01  5.0000000000e-01 0. 9.
       -3     1     4     0     0   103 -2.2317386268e+01 -7.9201213483e+00 -1.2925785975e+01  2.6983698691e+01  5.0000000000e-01 0. 9.
#pdf    2   -2  1.111326e-01  1.666806e-01  9.034425e+01  5.635807e-01  5.260329e-01
</event>
<event>
     8  9999  1.000000e+00  1.261970e+02  7.846410e-03  1.204586e-01
        2    -1     0     0   101     0  0.0000000000e+00  0.0000000000e+00  3.2312943221e+02  3.2312943221e+02  0.0000000000e+00 0. 9.
       -2    -1     0     0     0   101  0.0000000000e+00  0.0000000000e+00 -1.2965815206e+02  1.2965815206e+02  0.0000000000e+00 0. 9.
       23     2     1     2     0     0 -5.5809654429e+01 -6.6064266947e+01 -8.1523016345e+01  1.5020020707e+02  9.1841685067e+01 0. 9.
       23     2     1     2     0     0  5.5809654429e+01  6.6064266947e+01  2.7499429649e+02  3.0258737720e+02  9.1967672801e+01 0. 9.
       13     1     3     0     0     0 -4.7331838770e+01 -8.8057131434e+01 -5.2847211733e+01  1.1308050367e+02  1.0566000000e-01 0. 9.
      -13     1     3     0     0     0 -8.4778156589e+00  2.1992864487e+01 -2.8675804612e+01  3.7119703405e+01  1.0566000000e-01 0. 9.
       15     1     4     0     0     0  5.4640221423e+01  8.5006180628e+01  1.8712757134e+02  2.1267696206e+02  1.7769900000e+00 0. 9.
      -15     1     4     0     0     0  1.1694330061e+00 -1.8941913680e+01  8.7866725157e+01  8.9910415140e+01  1.7769900000e+00 0. 9.
#pdf    2   -2  3.297239e-01  1.323042e-01  1.261511e+02  3.062140e-01  5.454471e-01
</event>
<event>
     8  9999  1.000000e+00  9.749612e+01  7.823442e-03  1.252072e-01
        2    -1     0     0   101     0  0.0000000000e+00  0.0000000000e+00  7.8419564326e+01  7.8419564326e+01  0.0000000000e+00 0. 9.
       -2    -1     0     0     0   101  0.0000000000e+00  0.0000000000e+00 -1.2700231580e+02  1.2700231580e+02  0.0000000000e+00 0. 9.
      -24     2     1     2     0     0  2.5072836867e+01  4.8785452137e+01 -4.6163527232e+01  1.0766324675e+02  8.0322076450e+01 0. 9.
       24     2     1     2     0     0 -2.5072836867e+01 -4.8785452137e+01 -2.4192242379e+00  9.7758633373e+01  8.0884054450e+01 0. 9.
       13     1     3     0     0     0  3.7439593693e+01  4.4549318121e+01  1.5279972526e+00  5.8212634887e+01  1.0566000000e-01 0. 9.
      -14     1     3     0     0     0 -1.2366756826e+01  4.2361340166e+00 -4.7691524485e+01  4.9450611862e+01  0.0000000000e+00 0. 9.
      -13     1     4     0     0     0 -3.1689407571e+01 -7.8283854860e+00  3.0594241801e+01  4.4738361246e+01  1.0566000000e-01 0. 9.
       14     1     4     0     0     0  6.6165707045e+00 -4.0957066651e+01 -3.3013466039e+01  5.3020272127e+01  0.0000000000e+00 0. 9.
#pdf    2   -2  8.001996e-02  1.295942e-01  9.726409e+01  5.727618e-01  5.526387e-01
</event>
<event>
     8  9999  1.000000e+00  8.182658e+01  7.807923e-03  1.286509e-01
        1    -1     0     0   101     0  0.0000000000e+00  0.0000000000e+00  2.1275047944e+02  2.1275047944e+02  0.0000000000e+00 0. 9.
       -1    -1     0     0     0   101  0.0000000000e+00  0.0000000000e+00 -3.2297867627e+01  3.2297867627e+01  0.0000000000e+00 0. 9.
       23     2     1     2     0     0  2.8095881977e+01 -2.0358236949e+01  7.7634290361e+01  1.0432006089e+02  6.0429758143e+01 0. 9.
       23     2     1     2     0     0 -2.8095881977e+01  2.0358236949e+01  1.0281832146e+02  1.4072828618e+02  8.9604725922e+01 0. 9.
       16     1     3     0     0     0  3.7532431577e+01 -1.9698909815e+01  2.1752891479e+01  4.7643664381e+01  0.0000000000e+00 0. 9.
      -16     1     3     0     0     0 -9.4365496000e+00 -6.5932713443e-01  5.5881398882e+01  5.6676396512e+01  0.0000000000e+00 0. 9.
       16     1     4     0     0     0 -4.6415463589e+01  4.1733176983e+01  9.0646361358e+01  1.1005823980e+02  0.0000000000e+00 0. 9.
      -16     1     4     0     0     0  1.8319581612e+01 -2.1374940034e+01  1.2171960098e+01  3.0670046373e+01  0.0000000000e+00 0. 9.
#pdf    1   -1  2.170923e-01  3.295701e-02  6.968208e+01  2.175364e-01  4.597918e-01
</event>
<event>
     8  9999  1.000000e+00  9.619162e+01  7.822247e-03  1.254654e-01
        2    -1     0     0   101     0  0.0000000000e+00  0.0000000000e+00  3.9132424038e+01  3.9132424038e+01  0.0000000000e+00 0. 9.
       -2    -1     0     0     0   101  0.0000000000e+00  0.0000000000e+00 -2.4716032951e+02  2.4716032951e+02  0.0000000000e+00 0. 9.
      -24     2     1     2     0     0  5.1260778894e+01 -1.2975112688e+01 -7.3634420920e+01  1.2068717184e+02  7.9670223421e+01 0. 9.
       24     2     1     2     0     0 -5.1260778894e+01  1.2975112688e+01 -1.3439348456e+02  1.6560558171e+02  8.1040600945e+01 0. 9.
        1     1     3     0   102     0  1.5775061107e+01 -2.6138873808e+01  7.2533498616e+00  3.1381734514e+01  3.3000000000e-01 0. 9.
       -2     1     3     0     0   102  3.5485717787e+01  1.3163761120e+01 -8.0887770781e+01  8.9305437324e+01  3.3000000000e-01 0. 9.
       -3     1     4     0     0   103  3.1546115407e+00  3.6839067042e+01 -5.8513295851e+01  6.9217947281e+01  5.0000000000e-01 0. 9.
        4     1     4     0   103     0 -5.4415390435e+01 -2.3863954353e+01 -7.5880188704e+01  9.6387634432e+01  1.5000000000e+00 0. 9.
#pdf    2   -2  3.993104e-02  2.522044e-01  9.562095e+01  5.898897e-01  4.231761e-01
</event>
<event>
     8  9999  1.000000e+00  1.269706e+02  7.846955e-03  1.203505e-01
        1    -1     0     0   101     0  0.0000000000e+00  0.0000000000e+00  1.8297355113e+02  1.8297355113e+02  0.0000000000e+00 0. 9.
       -1    -1     0     0     0   101  0.0000000000e+00  0.0000000000e+00 -2.7755910055e+02  2.7755910055e+02  0.0000000000e+00 0. 9.
       23     2     1     2     0     0 -4.7835463321e+01  7.4778467430e+01 -2.3753455867e+02  2.6934962190e+02  9.0810250025e+01 0. 9.
       23     2     1     2     0     0  4.7835463321e+01 -7.4778467430e+01  1.4294900926e+02  1.9118302978e+02  9.0755059839e+01 0. 9.
        4     1     3     0   102     0 -1.0584573736e+01 -1.3803592001e+01 -5.6713778668e+00  1.8357202407e+01  1.5000000000e+00 0. 9.
       -4     1     3     0     0   102 -3.7250889585e+01  8.8582059430e+01 -2.3186318081e+02  2.5099241949e+02  1.5000000000e+00 0. 9.
        4     1     4     0   103     0 -1.8597588877e+01 -4.7162747658e+01  8.4160190553e+01  9.8261807192e+01  1.5000000000e+00 0. 9.
       -4     1     4     0     0   103  6.6433052198e+01 -2.7615719771e+01  5.8788818704e+01  9.2921222589e+01  1.5000000000e+00 0. 9.
#pdf    1   -1  1.867077e-01  2.832236e-01  1.269509e+02  2.380462e-01  1.460369e-01
</event>
<event>
     8  9999  1.000000e+00  1.173850e+02  7.839953e-03  1.217540e-01
        2    -1     0     0   101     0  0.0000000000e+00  0.0000000000e+00  2.3479438614e+02  2.3479438614e+02  0.0000000000e+00 0. 9.
       -2    -1     0     0     0   101  0.0000000000e+00  0.0000000000e+00 -1.7433074612e+02  1.7433074612e+02  0.0000000000e+00 0. 9.
      -24     2     1     2     0     0  4.7829584243e+01 -6.5003371447e+01 -1.3659539633e+02  1.7815657180e+02  8.1045384500e+01 0. 9.
       24     2     1     2     0     0 -4.7829584243e+01  6.5003371447e+01  1.9705903636e+02  2.3096856046e+02  8.9448894247e+01 0. 9.
        1     1     3     0   102     0 -9.0264220467e+00 -1.3446767826e+01  5.1227296240e+00  1.6989500249e+01  3.3000000000e-01 0. 9.
       -2     1     3     0     0   102  5.6856006289e+01 -5.1556603622e+01 -1.4171812596e+02  1.6116707155e+02  3.3000000000e-01 0. 9.
       -1     1     4     0     0   103  3.7135521339e+00  9.0762258123e-01 -8.6297873390e+00  9.4443833953e+00  3.3000000000e-01 0. 9.
        2     1     4     0   103     0 -5.1543136377e+01  6.4095748866e+01  2.0568882369e+02  2.2152417706e+02  3.3000000000e-01 0. 9.
#pdf    2   -2  2.395861e-01  1.778885e-01  1.143742e+02  4.340862e-01  5.085070e-01
</event>
<event>
     8  9999  1.000000e+00  9.952346e+01  7.825269e-03  1.248147e-01
        1    -1     0     0   101     0  0.0000000000e+00  0.0000000000e+00  2.2812465961e+02  2.2812465961e+02  0.0000000000e+00 0. 9.
       -1    -1     0     0     0   101  0.0000000000e+00  0.0000000000e+00 -7.5233857724e+01  7.5233857724e+01  0.0000000000e+00 0. 9.
       23     2     1     2     0     0 -3.9882959058e+01 -1.8873785091e+00 -2.2372012574e+01  1.0160488081e+02  9.0712911082e+01 0. 9.
       23     2     1     2     0     0  3.9882959058e+01  1.8873785091e+00  1.7526281446e+02  2.0175363652e+02  9.1614753709e+01 0. 9.
        5     1     3     0   102     0  1.0420559440e+01  2.4940231530e+01  1.6875828325e+01  3.2224785329e+01  4.8000000000e+00 0. 9.
       -5     1     3     0     0   102 -5.0303518498e+01 -2.6827610039e+01 -3.9247840900e+01  6.9380095481e+01  4.8000000000e+00 0. 9.
       16     1     4     0     0     0  5.9346936342e+01  1.6038336574e+01  1.6407855390e+02  1.7521717651e+02  0.0000000000e+00 0. 9.
      -16     1     4     0     0     0 -1.9463977284e+01 -1.4150958065e+01  1.1184260558e+01  2.6536460014e+01  0.0000000000e+00 0. 9.
#pdf    1   -1  2.327803e-01  7.676924e-02  9.911128e+01  1.954641e-01  3.727500e-01
</event>
<event>
     8  9999  1.000000e+00  8.829790e+01  7.814657e-03  1.271319e-01
       -1    -1     0     0     0   101  0.0000000000e+00  0.0000000000e+00  5.0127447373e+01  5.0127447373e+01  0.0000000000e+00 0. 9.
        1    -1     0     0   101     0  0.0000000000e+00  0.0000000000e+00 -4.4099517964e+02  4.4099517964e+02  0.0000000000e+00 0. 9.
      -24     2     1     2     0     0  9.7913546344e+00  3.8662040236e+01 -3.9272516589e+02  4.0245191794e+02  7.8382819227e+01 0. 9.
       24     2     1     2     0     0 -9.7913546344e+00 -3.8662040236e+01  1.8574336179e+00  8.8670709077e+01  7.9173357942e+01 0. 9.
       11     1     3     0     0     0  2.1766117855e+01  5.6188944715e+01 -3.4494752798e+02  3.5017104172e+02  5.1100000000e-04 0. 9.
      -12     1     3     0     0     0 -1.1974763221e+01 -1.7526904479e+01 -4.7777637904e+01  5.2280876221e+01  0.0000000000e+00 0. 9.
       -3     1     4     0     0   102  4.3781102394e+00 -5.9110037575e+01  1.4063291364e+01  6.0919541655e+01  5.0000000000e-01 0. 9.
        4     1     4     0   102     0 -1.4169464874e+01  2.0447997339e+01 -1.2205857746e+01  2.7751167423e+01  1.5000000000e+00 0. 9.
#pdf   -1    1  5.115046e-02  4.499951e-01  8.794595e+01  2.065205e-01  1.624412e-03
</event>
<event>
     8  9999  1.000000e+00  8.443694e+01  7.810700e-03  1.280198e-01
        1    -1     0     0   101     0  0.0000000000e+00  0.0000000000e+00  2.2493805083e+02  2.2493805083e+02  0.0000000000e+00 0. 9.
       -1    -1     0     0     0   101  0.0000000000e+00  0.0000000000e+00 -4.0703046367e+01  4.0703046367e+01  0.0000000000e+00 0. 9.
      -24     2     1     2     0     0  4.0841674596e+00 -2.5861449711e+01  1.5408946858e+02  1.7542520546e+02  7.9655152875e+01 0. 9.
       24     2     1     2     0     0 -4.0841674596e+00  2.5861449711e+01  3.0145535889e+01  9.0215891740e+01  8.0899065405e+01 0. 9.
       15     1     3     0     0     0  3.9505668259e+01 -9.0814010990e-01  6.0374414972e+01  7.2178599458e+01  1.7769900000e+00 0. 9.
      -16     1     3     0     0     0 -3.5421500799e+01 -2.4953309601e+01  9.3715053603e+01  1.0324660600e+02  0.0000000000e+00 0. 9.
       -3     1     4     0     0   102  1.8670036670e+01 -2.1485097825e+01  2.4133992737e+01  3.7321298252e+01  5.0000000000e-01 0. 9.
        4     1     4     0   102     0 -2.2754204130e+01  4.7346547536e+01  6.0115431525e+00  5.2894593488e+01  1.5000000000e+00 0. 9.
#pdf    1   -1  2.295286e-01  4.153372e-02  8.384771e+01  2.016724e-01  4.366333e-01
</event>
<event>
     8  9999  1.000000e+00  9.455205e+01  7.820722e-03  1.257965e-01
       -1    -1     0     0     0   101  0.0000000000e+00  0.0000000000e+00  1.5272773094e+02  1.5272773094e+02  0.0000000000e+00 0. 9.
        2    -1     0     0   101     0  0.0000000000e+00  0.0000000000e+00 -1.3832839899e+02  1.3832839899e+02  0.0000000000e+00 0. 9.
       23     2     1     2     0     0 -4.1230048875e+01 -2.5285797020e+00  1.1770912123e+02  1.5426323457e+02  9.0749091861e+01 0. 9.
       24     2     1     2     0     0  4.1230048875e+01  2.5285797020e+00 -1.0330978927e+02  1.3679289537e+02  7.9580607046e+01 0. 9.
        4     1     3     0   102     0  2.8523783327e+01 -4.1380054103e+00  4.5172906449e+01  5.3605697282e+01  1.5000000000e+00 0. 9.
       -4     1     3     0     0   102 -6.9753832202e+01  1.6094257083e+00  7.2536214777e+01  1.0065753728e+02  1.5000000000e+00 0. 9.
      -15     1     4     0     0     0 -3.3762270946e+00  1.2031474028e+01  9.0491060042e+00  1.5530592056e+01  1.7769900000e+00 0. 9.
       16     1     4     0     0     0  4.4606275970e+01 -9.5028943262e+00 -1.1235889527e+02  1.2126230331e+02  0.0000000000e+00 0. 9.
#pdf   -1    2  1.558446e-01  1.411514e-01  8.966261e+01  6.857385e-02  5.340614e-02
</event>
<event>
     8  9999  1.000000e+00  8.068007e+01  7.806676e-03  1.289365e-01
        2    -1     0     0   101     0  0.0000000000e+00  0.0000000000e+00  1.3908619891e+02  1.3908619891e+02  0.0000000000e+00 0. 9.
       -2    -1     0     0     0   101  0.0000000000e+00  0.0000000000e+00 -1.3589792276e+02  1.3589792276e+02  0.0000000000e+00 0. 9.
      -24     2     1     2     0     0 -3.9567129183e+00  8.5307408673e+00 -1.0971972354e+02  1.3508088049e+02  7.8230412395e+01 0. 9.
       24     2     1     2     0     0  3.9567129183e+00 -8.5307408673e+00  1.1290799969e+02  1.3990324119e+02  8.2074791407e+01 0. 9.
        3     1     3     0   102     0  3.1310273068e+01 -1.2635033937e+01 -7.0776222493e+01  7.8418753832e+01  5.0000000000e-01 0. 9.
       -4     1     3     0     0   102 -3.5266985986e+01  2.1165774805e+01 -3.8943501044e+01  5.6662126656e+01  1.5000000000e+00 0. 9.
       -3     1     4     0     0   103  6.7601482061e+00  7.8560038416e+00 -1.0856788133e+01  1.5017864319e+01  5.0000000000e-01 0. 9.
        4     1     4     0   103     0 -2.8034352878e+00 -1.6386744709e+01  1.2376478782e+02  1.2488537687e+02  1.5000000000e+00 0. 9.
#pdf    2   -2  1.419247e-01  1.386713e-01  7.879357e+01  5.493757e-01  5.515372e-01
</event>
<event>
     8  9999  1.000000e+00  1.031356e+02  7.828436e-03  1.241407e-01
        2    -1     0     0   101     0  0.0000000000e+00  0.0000000000e+00  5.5025053819e+02  5.5025053819e+02  0.0000000000e+00 0. 9.
       -1    -1     0     0     0   101  0.0000000000e+00  0.0000000000e+00 -2.8588328494e+01  2.8588328494e+01  0.0000000000e+00 0. 9.
       23     2     1     2     0     0  5.5041527688e+01 -2.0322167130e+01  1.0591514206e+02  1.5171528983e+02  9.1416363982e+01 0. 9.
       24     2     1     2     0     0 -5.5041527688e+01  2.0322167130e+01  4.1574706764e+02  4.2712357686e+02  7.8398758973e+01 0. 9.
        5     1     3     0   102     0  6.0641621006e+01 -4.2924484391e+01  1.0394645085e+02  1.2785860238e+02  4.8000000000e+00 0. 9.
       -5     1     3     0     0   102 -5.6000933175e+00  2.2602317261e+01  1.9686912011e+00  2.3856687443e+01  4.8000000000e+00 0. 9.
       -3     1     4     0     0   103 -6.4982105814e+01  2.6377254227e+01  4.0557131722e+02  4.1159054528e+02  5.0000000000e-01 0. 9.
        4     1     4     0   103     0  9.9405781257e+00 -6.0550870969e+00  1.0175750423e+01  1.5533031575e+01  1.5000000000e+00 0. 9.
#pdf    2   -1  5.614801e-01  2.917176e-02  9.792306e+01  7.741734e-02  4.762615e-01
</event>
<event>
     8  9999  1.000000e+00  7.850583e+01  7.804263e-03  1.294931e-01
        2    -1     0     0   101     0  0.0000000000e+00  0.0000000000e+00  1.1930215190e+02  1.1930215190e+02  0.0000000000e+00 0. 9.
       -2    -1     0     0     0   101  0.0000000000e+00  0.0000000000e+00 -1.9567976670e+02  1.9567976670e+02  0.0000000000e+00 0. 9.
      -24     2     1     2     0     0  2.3823353734e+00  2.1673356140e+00 -1.7330754653e+02  1.9028161887e+02  7.8493413299e+01 0. 9.
       24     2     1     2     0     0 -2.3823353734e+00 -2.1673356140e+00  9.6929931731e+01  1.2470029973e+02  7.8386097121e+01 0. 9.
       11     1     3     0     0     0  1.0080490399e+00  4.0250162989e+01 -8.2431145377e+01  9.1738680566e+01  5.1100000000e-04 0. 9.
      -12     1     3     0     0     0  1.3742863334e+00 -3.8082827375e+01 -9.0876401150e+01  9.8542938305e+01  0.0000000000e+00 0. 9.
      -13     1     4     0     0     0 -1.5631267646e+01 -3.7384989009e+01  4.4770795511e+01  6.0385505100e+01  1.0566000000e-01 0. 9.
       14     1     4     0     0     0  1.3248932273e+01  3.5217653395e+01  5.2159136220e+01  6.4314794630e+01  0.0000000000e+00 0. 9.
#pdf    2   -2  1.217369e-01  1.996732e-01  7.845223e+01  5.612745e-01  4.962962e-01
</event>
<event>
     8  9999  1.000000e+00  1.016284e+02  7.827128e-03  1.244182e-01
        1    -1     0     0   101     0  0.0000000000e+00  0.0000000000e+00  3.0665637749e+02  3.0665637749e+02  0.0000000000e+00 0. 9.
       -2    -1     0     0     0   101  0.0000000000e+00  0.0000000000e+00 -4.0395880254e+01  4.0395880254e+01  0.0000000000e+00 0. 9.
       23     2     1     2     0     0  5.9872634489e+01  7.9956162235e-01  6.4099756424e+01  1.2146288849e+02  8.4018348281e+01 0. 9.
      -24     2     1     2     0     0 -5.9872634489e+01 -7.9956162235e-01  2.0216074081e+02  2.2558936925e+02  8.0226097590e+01 0. 9.
        1     1     3     0   102     0  7.2473196052e+00 -2.2223977846e+01 -1.1871608809e+01  2.6219703058e+01  3.3000000000e-01 0. 9.
       -1     1     3     0     0   102  5.2625314884e+01  2.3023539468e+01  7.5971365233e+01  9.5243185434e+01  3.3000000000e-01 0. 9.
       15     1     4     0     0     0 -5.9987316051e+01  4.4947553296e+00  6.5973336578e+01  8.9299046720e+01  1.7769900000e+00 0. 9.
      -16     1     4     0     0     0  1.1468156178e-01 -5.2943169520e+00  1.3618740424e+02  1.3629032253e+02  0.0000000000e+00 0. 9.
#pdf    1   -2  3.129147e-01  4.122029e-02  1.001079e+02  1.263378e-01  5.889918e-01
</event>
<event>
     8  9999  1.000000e+00  9.227621e+01  7.818562e-03  1.262687e-01
        1    -1     0     0   101     0  0.0000000000e+00  0.0000000000e+00  7.1965909404e+01  7.1965909404e+01  0.0000000000e+00 0. 9.
       -2    -1     0     0     0   101  0.0000000000e+00  0.0000000000e+00 -1.8438917773e+02  1.8438917773e+02  0.0000000000e+00 0. 9.
       23     2     1     2     0     0  7.4566176126e+00 -3.3265529806e+01  1.8993999468e+01  9.7745768562e+01  8.9617334464e+01 0. 9.
      -24     2     1     2     0     0 -7.4566176126e+00  3.3265529806e+01 -1.3141726780e+02  1.5860931858e+02  8.2001347821e+01 0. 9.
        5     1     3     0   102     0 -3.1130242641e+01 -1.5122985161e+01  3.7287998216e+01  5.1100210352e+01  4.8000000000e+00 0. 9.
       -5     1     3     0     0   102  3.8586860254e+01 -1.8142544645e+01 -1.8293998749e+01  4.6645558209e+01  4.8000000000e+00 0. 9.
        1     1     4     0   103     0 -3.7620317634e+01  3.0953159031e+00 -9.6018098050e+01  1.0317196001e+02  3.3000000000e-01 0. 9.
       -2     1     4     0     0   103  3.0163700021e+01  3.0170213903e+01 -3.5399169748e+01  5.5437358566e+01  3.3000000000e-01 0. 9.
#pdf    1   -2  7.343460e-02  1.881522e-01  8.880550e+01  3.785191e-01  5.051183e-01
</event>
<event>
     8  9999  1.000000e+00  1.124156e+02  7.836100e-03  1.225415e-01
        2    -1     0     0   101     0  0.0000000000e+00  0.0000000000e+00  1.2138365045e+02  1.2138365045e+02  0.0000000000e+00 0. 9.
       -2    -1     0     0     0   101  0.0000000000e+00  0.0000000000e+00 -2.0508171597e+02  2.0508171597e+02  0.0000000000e+00 0. 9.
      -24     2     1     2     0     0 -7.4950557678e+01  1.3040951545e-01 -1.5684944133e+02  1.9459665769e+02  8.7455753588e+01 0. 9.
       24     2     1     2     0     0  7.4950557678e+01 -1.3040951545e-01  7.3151375811e+01  1.3186870873e+02  8.0128830366e+01 0. 9.
        1     1     3     0   102     0  1.3283678694e+01 -1.5553261191e+01 -1.0514835569e+01  2.3000667824e+01  3.3000000000e-01 0. 9.
       -2     1     3     0     0   102 -8.8234236372e+01  1.5683670706e+01 -1.4633460576e+02  1.7159598986e+02  3.3000000000e-01 0. 9.
      -11     1     4     0     0     0  3.0248400008e+01 -2.5090859037e+01 -3.7544225622e+00  3.9479267968e+01  5.1100000000e-04 0. 9.
       12     1     4     0     0     0  4.4702157670e+01  2.4960449521e+01  7.6905798374e+01  9.2389440761e+01  0.0000000000e+00 0. 9.
#pdf    2   -2  1.238609e-01  2.092671e-01  1.097189e+02  5.536178e-01  4.742972e-01
</event>
<event>
     8  9999  1.000000e+00  1.138712e+02  7.837245e-03  1.223062e-01
        2    -1     0     0   101     0  0.0000000000e+00  0.0000000000e+00  2.1016069045e+02  2.1016069045e+02  0.0000000000e+00 0. 9.
       -2    -1     0     0     0   101  0.0000000000e+00  0.0000000000e+00 -1.0582157715e+02  1.0582157715e+02  0.0000000000e+00 0. 9.
      -24     2     1     2     0     0  6.2143285318e+01  5.1954923987e+01 -4.9880281542e+01  1.2420774239e+02  7.9865003261e+01 0. 9.
       24     2     1     2     0     0 -6.2143285318e+01 -5.1954923987e+01  1.5421939485e+02  1.9177452521e+02  8.0204393503e+01 0. 9.
        1     1     3     0   102     0 -7.1314357625e+00  4.1471089861e+01 -8.8101554045e+00  4.2993446112e+01  3.3000000000e-01 0. 9.
       -2     1     3     0     0   102  6.9274721080e+01  1.0483834126e+01 -4.1070126137e+01  8.1214296276e+01  3.3000000000e-01 0. 9.
      -11     1     4     0     0     0 -3.0306855649e+01 -4.7570635424e+01  3.0853717181e+01  6.4291700228e+01  5.1100000000e-04 0. 9.
       12     1     4     0     0     0 -3.1836429668e+01 -4.3842885631e+00  1.2336567767e+02  1.2748282499e+02  0.0000000000e+00 0. 9.
#pdf    2   -2  2.144497e-01  1.079812e-01  1.137520e+02  4.667744e-01  5.611925e-01
</event>
<event>
     8  9999  1.000000e+00  1.672509e+02  7.871634e-03  1.156701e-01
        2    -1     0     0   101     0  0.0000000000e+00  0.0000000000e+00  6.5740314802e+02  6.5740314802e+02  0.0000000000e+00 0. 9.
       -2    -1     0     0     0   101  0.0000000000e+00  0.0000000000e+00 -4.3703395327e+01  4.3703395327e+01  0.0000000000e+00 0. 9.
      -24     2     1     2     0     0 -1.3932419806e+02  3.2361739007e+01  2.4247303961e+02  2.9199253423e+02  7.7510972071e+01 0. 9.
       24     2     1     2     0     0  1.3932419806e+02 -3.2361739007e+01  3.7122671308e+02  4.0911400912e+02  9.5427908048e+01 0. 9.
       15     1     3     0     0     0 -5.7713147358e+01  1.8638816399e+01  1.7498691405e+02  1.8520742598e+02  1.7769900000e+00 0. 9.
      -16     1     3     0     0     0 -8.1611050699e+01  1.3722922608e+01  6.7486125561e+01  1.0678510825e+02  0.0000000000e+00 0. 9.
       -3     1     4     0     0   102  1.5911800640e+01  1.7941566264e+01  1.4155091741e+02  1.4356878986e+02  5.0000000000e-01 0. 9.
        4     1     4     0   102     0  1.2341239742e+02 -5.0303305271e+01  2.2967579567e+02  2.6554521926e+02  1.5000000000e+00 0. 9.
#pdf    2   -2  6.708195e-01  4.459530e-02  1.626852e+02  2.408222e-02  5.883629e-01
</event>
<event>
     8  9999  1.000000e+00  8.881448e+01  7.815174e-03  1.270170e-01
        1    -1     0     0   101     0  0.0000000000e+00  0.0000000000e+00  3.5493090720e+02  3.5493090720e+02  0.0000000000e+00 0. 9.
       -1    -1     0     0     0   101  0.0000000000e+00  0.0000000000e+00 -3.7217172446e+01  3.7217172446e+01  0.0000000000e+00 0. 9.
      -24     2     1     2     0     0 -2.2462413301e+01 -3.1926341272e+01  2.8350687793e+02  2.9714917803e+02  7.9985204196e+01 0. 9.
       24     2     1     2     0     0  2.2462413301e+01  3.1926341272e+01  3.4206856816e+01  9.4998901611e+01  7.9566519188e+01 0. 9.
       15     1     3     0     0     0 -5.1178961896e+01 -2.9192303534e+01  1.6606102151e+02  1.7621264791e+02  1.7769900000e+00 0. 9.
      -16     1     3     0     0     0  2.8716548595e+01 -2.7340377377e+00  1.1744585643e+02  1.2093653012e+02  0.0000000000e+00 0. 9.
      -15     1     4     0     0     0  4.8299011626e+01  2.1429758057e+01  4.0270642766e+01  6.6459848154e+01  1.7769900000e+00 0. 9.
       16     1     4     0     0     0 -2.5836598324e+01  1.0496583214e+01 -6.0637859506e+00  2.8539053457e+01  0.0000000000e+00 0. 9.
#pdf    1   -1  3.621744e-01  3.797671e-02  8.862665e+01  9.449244e-02  4.461223e-01
</event>
<event>
     8  9999  1.000000e+00  9.870866e+01  7.824539e-03  1.249712e-01
        1    -1     0     0   101     0  0.0000000000e+00  0.0000000000e+00  1.5461064521e+02  1.5461064521e+02  0.0000000000e+00 0. 9.
       -1    -1     0     0     0   101  0.0000000000e+00  0.0000000000e+00 -6.6049195734e+01  6.6049195734e+01  0.0000000000e+00 0. 9.
       23     2     1     2     0     0  3.0973353479e+01  2.7277219619e+00  2.0204299812e+01  9.9669114570e+01  9.2514483058e+01 0. 9.
       23     2     1     2     0     0 -3.0973353479e+01 -2.7277219619e+00  6.8357149666e+01  1.2099072638e+02  9.4864465768e+01 0. 9.
        2     1     3     0   102     0  3.1339618367e+01 -1.6165453934e+01  5.1911362985e+01  6.2756609908e+01  3.3000000000e-01 0. 9.
       -2     1     3     0     0   102 -3.6626488741e-01  1.8893175896e+01 -3.1707063173e+01  3.6912504662e+01  3.3000000000e-01 0. 9.
        4     1     4     0   103     0  2.6665112915e+01  7.5323614102e+00 -3.8553596837e+00  2.8015683349e+01  1.5000000000e+00 0. 9.
       -4     1     4     0     0   103 -5.7638466395e+01 -1.0260083372e+01  7.2212509350e+01  9.2975043026e+01  1.5000000000e+00 0. 9.
#pdf    1   -1  1.577660e-01  6.739714e-02  9.759979e+01  2.743463e-01  3.868201e-01
</event>
<event>
     8  9999  1.000000e+00  9.491997e+01  7.821066e-03  1.257215e-01
        2    -1     0     0   101     0  0.0000000000e+00  0.0000000000e+00  5.8567472613e+01  5.8567472613e+01  0.0000000000e+00 0. 9.
       -1    -1     0     0     0   101  0.0000000000e+00  0.0000000000e+00 -1.7693517132e+02  1.7693517132e+02  0.0000000000e+00 0. 9.
       23     2     1     2     0     0 -2.4032599620e+01 -2.9562959314e+01 -1.0407006653e+02  1.4450935993e+02  9.2740724346e+01 0. 9.
       24     2     1     2     0     0  2.4032599620e+01  2.9562959314e+01 -1.4297632184e+01  9.0993284008e+01  8.1386860368e+01 0. 9.
        3     1     3     0   102     0  1.9910036998e+01 -4.8375052331e+01 -5.8244938976e+01  7.8289706715e+01  5.0000000000e-01 0. 9.
       -3     1     3     0     0   102 -4.3942636618e+01  1.8812093017e+01 -4.5825127550e+01  6.6219653212e+01  5.0000000000e-01 0. 9.
       -1     1     4     0     0   103  6.5360850658e+00 -2.0431497434e+01 -2.8952185668e+01  3.6034767244e+01  3.3000000000e-01 0. 9.
        2     1     4     0   103     0  1.7496514554e+01  4.9994456748e+01  1.4654553484e+01  5.4958516764e+01  3.3000000000e-01 0. 9.
#pdf    2   -1  5.976273e-02  1.805461e-01  8.986298e+01  5.784094e-01  2.508295e-01
</event>
<event>
     8  9999  1.000000e+00  9.602910e+01  7.822097e-03  1.254979e-01
        2    -1     0     0   101     0  0.0000000000e+00  0.0000000000e+00  7.3554810492e+01  7.3554810492e+01  0.0000000000e+00 0. 9.
       -2    -1     0     0     0   101  0.0000000000e+00  0.0000000000e+00 -2.2658197399e+02  2.2658197399e+02  0.0000000000e+00 0. 9.
      -24     2     1     2     0     0  2.0731158589e+01 -4.7621004171e+01 -1.7683380101e+02  2.0124989334e+02  8.0831834169e+01 0. 9.
       24     2     1     2     0     0 -2.0731158589e+01  4.7621004171e+01  2.3806637520e+01  9.8886891135e+01  8.0711339189e+01 0. 9.
        1     1     3     0   102     0  7.1855198931e+00  1.8914754035e+01 -1.3413137192e+01  2.4277989325e+01  3.3000000000e-01 0. 9.
       -4     1     3     0     0   102  1.3545638696e+01 -6.6535758207e+01 -1.6342066382e+02  1.7697190402e+02  1.5000000000e+00 0. 9.
      -13     1     4     0     0     0  6.2114247533e+00 -1.1278399350e+01 -1.7752898720e+01  2.1930815451e+01  1.0566000000e-01 0. 9.
       14     1     4     0     0     0 -2.6942583343e+01  5.8899403521e+01  4.1559536239e+01  7.6956075684e+01  0.0000000000e+00 0. 9.
#pdf    2   -2  7.505593e-02  2.312061e-01  9.597844e+01  5.741107e-01  4.510317e-01
</event>
<event>
     8  9999  1.000000e+00  8.156527e+01  7.807641e-03  1.287156e-01
        2    -1     0     0   101     0  0.0000000000e+00  0.0000000000e+00  1.1708669376e+02  1.1708669376e+02  0.0000000000e+00 0. 9.
       -2    -1     0     0     0   101  0.0000000000e+00  0.0000000000e+00 -1.1241462529e+02  1.1241462529e+02  0.0000000000e+00 0. 9.
      -24     2     1     2     0     0 -9.6244630449e+00  3.1041345571e+01 -7.7852509904e+01  1.1787335633e+02  8.2322046922e+01 0. 9.
       24     2     1     2     0     0  9.6244630449e+00 -3.1041345571e+01  8.2524578378e+01  1.1162796272e+02  6.7781270284e+01 0. 9.
        3     1     3     0   102     0  1.2732318190e+01 -2.2061886937e-01  1.3614436761e+01  1.8648417828e+01  5.0000000000e-01 0. 9.
       -4     1     3     0     0   102 -2.2356781235e+01  3.1261964441e+01 -9.1466946664e+01  9.9224938498e+01  1.5000000000e+00 0. 9.
       -1     1     4     0     0   103  3.4071921665e+01 -4.7807928941e+00  6.0288959326e+01  6.9416275780e+01  3.3000000000e-01 0. 9.
        2     1     4     0   103     0 -2.4447458620e+01 -2.6260552677e+01  2.2235619053e+01  4.2211686943e+01  3.3000000000e-01 0. 9.
#pdf    2   -2  1.194762e-01  1.147088e-01  7.516978e+01  5.631626e-01  5.652461e-01
</event>
<event>
     8  9999  1.000000e+00  8.796912e+01  7.814327e-03  1.272055e-01
        2    -1     0     0   101     0  0.0000000000e+00  0.0000000000e+00  1.9734153867e+02  1.9734153867e+02  0.0000000000e+00 0. 9.
       -1    -1     0     0     0   101  0.0000000000e+00  0.0000000000e+00 -1.4753831484e+02  1.4753831484e+02  0.0000000000e+00 0. 9.
       23     2     1     2     0     0  4.5533487294e+00  2.3237427977e+01  1.7288563523e+02  1.9636499193e+02  9.0050297854e+01 0. 9.
       24     2     1     2     0     0 -4.5533487294e+00 -2.3237427977e+01 -1.2308241140e+02  1.4851486158e+02  7.9666009515e+01 0. 9.
        2     1     3     0   102     0 -3.6647087822e+01  1.4022352679e+01  3.6488873190e+01  5.3583413359e+01  3.3000000000e-01 0. 9.
       -2     1     3     0     0   102  4.1200436551e+01  9.2150752980e+00  1.3639676204e+02  1.4278157857e+02  3.3000000000e-01 0. 9.
       -1     1     4     0     0   103 -4.8962522119e+00 -3.6792594416e+01 -1.5738138504e+01  4.0317070741e+01  3.3000000000e-01 0. 9.
        2     1     4     0   103     0  3.4290348254e-01  1.3555166439e+01 -1.0734427289e+02  1.0819779084e+02  3.3000000000e-01 0. 9.
#pdf    2   -1  2.013689e-01  1.505493e-01  8.311067e+01  4.925069e-01  2.852442e-01
</event>
<event>
     8  9999  1.000000e+00  8.359766e+01  7.809817e-03  1.282199e-01
        2    -1     0     0   101     0  0.0000000000e+00  0.0000000000e+00  2.2087069956e+02  2.2087069956e+02  0.0000000000e+00 0. 9.
       -2    -1     0     0     0   101  0.0000000000e+00  0.0000000000e+00 -3.1746756155e+01  3.1746756155e+01  0.0000000000e+00 0. 9.
      -24     2     1     2     0     0  1.5382301635e+01  1.1500955929e+01  1.0316845834e+02  1.3373033693e+02  8.2892611431e+01 0. 9.
       24     2     1     2     0     0 -1.5382301635e+01 -1.1500955929e+01  8.5955485069e+01  1.1888711878e+02  7.9855584702e+01 0. 9.
        1     1     3     0   102     0  3.7734317432e+01 -1.2729086677e+01  8.9653321416e+01  9.8100638635e+01  3.3000000000e-01 0. 9.
       -2     1     3     0     0   102 -2.2352015797e+01  2.4230042606e+01  1.3515136922e+01  3.5629698299e+01  3.3000000000e-01 0. 9.
       -1     1     4     0     0   103 -3.5512339700e+01 -2.4124042962e+01  1.7390303765e+01  4.6320916278e+01  3.3000000000e-01 0. 9.
        2     1     4     0   103     0  2.0130038065e+01  1.2623087033e+01  6.8565181304e+01  7.2566202505e+01  3.3000000000e-01 0. 9.
#pdf    2   -2  2.253783e-01  3.239465e-02  8.213283e+01  4.638273e-01  5.977160e-01
</event>
<event>
     8  9999  1.000000e+00  8.766842e+01  7.814024e-03  1.272732e-01
        2    -1     0     0   101     0  0.0000000000e+00  0.0000000000e+00  1.6030032389e+02  1.6030032389e+02  0.0000000000e+00 0. 9.
       -1    -1     0     0     0   101  0.0000000000e+00  0.0000000000e+00 -9.7295226221e+01  9.7295226221e+01  0.0000000000e+00 0. 9.
       23     2     1     2     0     0  1.5930207247e+01  6.1933976950e+00 -5.8977625178e+01  1.1043785495e+02  9.1793408571e+01 0. 9.
       24     2     1     2     0     0 -1.5930207247e+01 -6.1933976950e+00  1.2198272285e+02  1.4715769516e+02  8.0520015481e+01 0. 9.
        2     1     3     0   102     0  4.5479022367e+01  2.6973192377e+01 -5.0953597648e+01  7.3432095134e+01  3.3000000000e-01 0. 9.
       -2     1     3     0     0   102 -2.9548815120e+01 -2.0779794682e+01 -8.0240275298e+00  3.7005759819e+01  3.3000000000e-01 0. 9.
       -3     1     4     0     0   103  2.5044339048e+01 -8.7728378188e+00  1.0847967567e+01  2.8672460691e+01  5.0000000000e-01 0. 9.
        4     1     4     0   103     0 -4.0974546295e+01  2.5794401239e+00  1.1113475528e+02  1.1848523447e+02  1.5000000000e+00 0. 9.
#pdf    2   -1  1.635718e-01  9.928084e-02  8.231405e+01  5.313694e-01  3.452254e-01
</event>
<event>
     8  9999  1.000000e+00  1.221256e+02  7.843483e-03  1.210420e-01
        2    -1     0     0   101     0  0.0000000000e+00  0.0000000000e+00  3.5871150612e+01  3.5871150612e+01  0.0000000000e+00 0. 9.
       -2    -1     0     0     0   101  0.0000000000e+00  0.0000000000e+00 -5.2184866875e+02  5.2184866875e+02  0.0000000000e+00 0. 9.
      -24     2     1     2     0     0  9.1472540196e+01 -7.3046108746e+00 -3.6812715965e+02  3.8774162317e+02  8.0033603658e+01 0. 9.
       24     2     1     2     0     0 -9.1472540196e+01  7.3046108746e+00 -1.1785035848e+02  1.6997819619e+02  8.1137520516e+01 0. 9.
        3     1     3     0   102     0  8.9417664980e+01 -3.2637509440e+01 -3.0994193063e+02  3.2422982003e+02  5.0000000000e-01 0. 9.
       -4     1     3     0     0   102  2.0548752159e+00  2.5332898565e+01 -5.8185229023e+01  6.3511803142e+01  1.5000000000e+00 0. 9.
       -1     1     4     0     0   103  9.0138363132e+00  6.8217167907e+00 -4.3577326327e+01  4.5020854444e+01  3.3000000000e-01 0. 9.
        2     1     4     0   103     0 -1.0048637651e+02  4.8289408392e-01 -7.4273032157e+01  1.2495734175e+02  3.3000000000e-01 0. 9.
#pdf    2   -2  3.660321e-02  5.324986e-01  1.217619e+02  5.960176e-01  9.331207e-02
</event>
<event>
     8  9999  1.000000e+00  8.930058e+01  7.815657e-03  1.269096e-01
        2    -1     0     0   101     0  0.0000000000e+00  0.0000000000e+00  8.9594907528e+01  8.9594907528e+01  0.0000000000e+00 0. 9.
       -2    -1     0     0     0   101  0.0000000000e+00  0.0000000000e+00 -3.4047945440e+02  3.4047945440e+02  0.0000000000e+00 0. 9.
      -24     2     1     2     0     0 -2.7820350270e+01 -2.6067839521e+01 -3.1023619240e+02  3.2282476512e+02  8.0720689743e+01 0. 9.
       24     2     1     2     0     0  2.7820350270e+01  2.6067839521e+01  5.9351645522e+01  1.0724959681e+02  8.0785852995e+01 0. 9.
       15     1     3     0     0     0  2.4607485092e+01  8.3412228412e+00 -7.5961734112e+01  8.0302223281e+01  1.7769900000e+00 0. 9.
      -16     1     3     0     0     0 -5.2427835363e+01 -3.4409062362e+01 -2.3427445828e+02  2.4252254183e+02  0.0000000000e+00 0. 9.
       -3     1     4     0     0   102  1.0854757399e+01 -1.6805078016e+00 -1.9251461116e+01  2.2170219209e+01  5.0000000000e-01 0. 9.
        4     1     4     0   102     0  1.6965592872e+01  2.7748347323e+01  7.8603106638e+01  8.5079377606e+01  1.5000000000e+00 0. 9.
#pdf    2   -2  9.142338e-02  3.474280e-01  8.927113e+01  5.706211e-01  2.938078e-01
</event>
<event>
     8  9999  1.000000e+00  1.071284e+02  7.831813e-03  1.234306e-01
        1    -1     0     0   101     0  0.0000000000e+00  0.0000000000e+00  5.1408748980e+01  5.1408748980e+01  0.0000000000e+00 0. 9.
       -2    -1     0     0     0   101  0.0000000000e+00  0.0000000000e+00 -3.2933849729e+02  3.2933849729e+02  0.0000000000e+00 0. 9.
       23     2     1     2     0     0 -2.7110316813e+01 -5.8409905293e+01 -3.5322788288e+01  1.1735854641e+02  9.1534926284e+01 0. 9.
      -24     2     1     2     0     0  2.7110316813e+01  5.8409905293e+01 -2.4260696002e+02  2.6338869986e+02  7.9804660564e+01 0. 9.
        4     1     3     0   102     0 -3.7332876309e+00 -7.7576590711e+01 -1.0849118290e+01  7.8434802419e+01  1.5000000000e+00 0. 9.
       -4     1     3     0     0   102 -2.3377029182e+01  1.9166685418e+01 -2.4473669998e+01  3.8923743994e+01  1.5000000000e+00 0. 9.
        3     1     4     0   103     0  1.1387922544e+01 -1.8240325935e+01 -8.1333894169e+01  8.4129938850e+01  5.0000000000e-01 0. 9.
       -4     1     4     0     0   103  1.5722394269e+01  7.6650231227e+01 -1.6127306585e+02  1.7925876101e+02  1.5000000000e+00 0. 9.
#pdf    1   -2  5.245791e-02  3.360597e-01  1.025450e+02  4.125237e-01  3.044449e-01
</event>
<event>
     8  9999  1.000000e+00  1.255937e+02  7.845982e-03  1.205435e-01
        2    -1     0     0   101     0  0.0000000000e+00  0.0000000000e+00  5.9004148411e+01  5.9004148411e+01  0.0000000000e+00 0. 9.
       -2    -1     0     0     0   101  0.0000000000e+00  0.0000000000e+00 -2.8400668442e+02  2.8400668442e+02  0.0000000000e+00 0. 9.
      -24     2     1     2     0     0 -7.0854776902e+01  6.5066438733e+01 -7.2490273268e+01  1.4654136591e+02  8.3459519207e+01 0. 9.
       24     2     1     2     0     0  7.0854776902e+01 -6.5066438733e+01 -1.5251226274e+02  1.9646946692e+02  7.8014231298e+01 0. 9.
       13     1     3     0     0     0 -7.9129073974e+01  3.1975720875e+01 -2.6663204722e+01  8.9413615985e+01  1.0566000000e-01 0. 9.
      -14     1     3     0     0     0  8.2742970720e+00  3.3090717858e+01 -4.5827068547e+01  5.7127749929e+01  0.0000000000e+00 0. 9.
       -3     1     4     0     0   102  2.2992965577e+01  1.6456667247e+01 -2.5117193902e+01  3.7823561339e+01  5.0000000000e-01 0. 9.
        4     1     4     0   102     0  4.7861811325e+01 -8.1523105980e+01 -1.2739506884e+02  1.5864590558e+02  1.5000000000e+00 0. 9.
#pdf    2   -2  6.020831e-02  2.898027e-01  1.238558e+02  5.777126e-01  3.620782e-01
</event>
<event>
     8  9999  1.000000e+00  8.727186e+01  7.813623e-03  1.273628e-01
        2    -1     0     0   101     0  0.0000000000e+00  0.0000000000e+00  2.1173585096e+02  2.1173585096e+02  0.0000000000e+00 0. 9.
       -2    -1     0     0     0   101  0.0000000000e+00  0.0000000000e+00 -4.8504842371e+01  4.8504842371e+01  0.0000000000e+00 0. 9.
      -24     2     1     2     0     0  2.4519519076e+01 -2.4165994657e+01  1.4988146876e+01  8.7854872865e+01  7.9426897371e+01 0. 9.
       24     2     1     2     0     0 -2.4519519076e+01  2.4165994657e+01  1.4824286171e+02  1.7238582047e+02  8.0967418972e+01 0. 9.
        1     1     3     0   102     0  4.2746937073e+01  3.8099132452e+00 -1.2394369877e+01  4.4671527540e+01  3.3000000000e-01 0. 9.
       -2     1     3     0     0   102 -1.8227417997e+01 -2.7975907902e+01  2.7382516753e+01  4.3183345326e+01  3.3000000000e-01 0. 9.
       -3     1     4     0     0   103 -5.5793485224e+00  3.9465946896e+01  2.5676340199e+01  4.7415340770e+01  5.0000000000e-01 0. 9.
        4     1     4     0   103     0 -1.8940170554e+01 -1.5299952239e+01  1.2256652151e+02  1.2497047970e+02  1.5000000000e+00 0. 9.
#pdf    2   -2  2.160570e-01  4.949474e-02  8.656693e+01  4.736899e-01  5.823935e-01
</event>
<event>
     8  9999  1.000000e+00  8.623596e+01  7.812566e-03  1.275996e-01
        1    -1     0     0   101     0  0.0000000000e+00  0.0000000000e+00  9.3761850546e+01  9.3761850546e+01  0.0000000000e+00 0. 9.
       -2    -1     0     0     0   101  0.0000000000e+00  0.0000000000e+00 -1.2737800988e+02  1.2737800988e+02  0.0000000000e+00 0. 9.
       23     2     1     2     0     0 -9.1801822976e+00 -7.0788711866e+00  5.0310562619e+01  1.0404158754e+02  9.0327808906e+01 0. 9.
      -24     2     1     2     0     0  9.1801822976e+00  7.0788711866e+00 -8.3926721952e+01  1.1709827289e+02  8.0832695684e+01 0. 9.
        2     1     3     0   102     0 -6.3867698609e+00 -3.5420181334e+01  6.3238689767e+01  7.2764145418e+01  3.3000000000e-01 0. 9.
       -2     1     3     0     0   102 -2.7934124367e+00  2.8341310148e+01 -1.2928127148e+01  3.1277442118e+01  3.3000000000e-01 0. 9.
        1     1     4     0   103     0  3.9021768701e+00 -1.9132368590e+01  8.1916682896e+00  2.1177507917e+01  3.3000000000e-01 0. 9.
       -2     1     4     0     0   103  5.2780054275e+00  2.6211239777e+01 -9.2118390242e+01  9.5920764971e+01  3.3000000000e-01 0. 9.
#pdf    1   -2  9.567536e-02  1.299776e-01  8.165973e+01  3.498022e-01  5.560748e-01
</event>
<event>
     8  9999  1.000000e+00  1.076215e+02  7.832221e-03  1.233452e-01
        2    -1     0     0   101     0  0.0000000000e+00  0.0000000000e+00  6.2813939241e+01  6.2813939241e+01  0.0000000000e+00 0. 9.
       -2    -1     0     0     0   101  0.0000000000e+00  0.0000000000e+00 -2.0610486238e+02  2.0610486238e+02  0.0000000000e+00 0. 9.
      -24     2     1     2     0     0 -4.5634622607e+01  5.1990257269e+01 -2.7376975226e+01  1.1000151751e+02  8.1026720594e+01 0. 9.
       24     2     1     2     0     0  4.5634622607e+01 -5.1990257269e+01 -1.1591394791e+02  1.5891728411e+02  8.3863903063e+01 0. 9.
       13     1     3     0     0     0 -1.2541230353e+01 -2.1911365837e+01 -1.0183636310e+01  2.7223299288e+01  1.0566000000e-01 0. 9.
      -14     1     3     0     0     0 -3.3093392254e+01  7.3901623106e+01 -1.7193338916e+01  8.2778218220e+01  0.0000000000e+00 0. 9.
      -15     1     4     0     0     0 -1.7926734272e+01 -1.2849644797e+01 -6.4732275764e+01  6.8409841340e+01  1.7769900000e+00 0. 9.
       16     1     4     0     0     0  6.3561356879e+01 -3.9140612472e+01 -5.1181672146e+01  9.0507442769e+01  0.0000000000e+00 0. 9.
#pdf    2   -2  6.409586e-02  2.103111e-01  1.065403e+02  5.766517e-01  4.739596e-01
</event>
<event>
     8  9999  1.000000e+00  9.242120e+01  7.818701e-03  1.262382e-01
        1    -1     0     0   101     0  0.0000000000e+00  0.0000000000e+00  2.7278694976e+01  2.7278694976e+01  0.0000000000e+00 0. 9.
       -1    -1     0     0     0   101  0.0000000000e+00  0.0000000000e+00 -3.3213361678e+02  3.3213361678e+02  0.0000000000e+00 0. 9.
      -24     2     1     2     0     0  1.2339099879e+01 -4.3224492702e+01 -1.0958991298e+02  1.4342143108e+02  8.0864996827e+01 0. 9.
       24     2     1     2     0     0 -1.2339099879e+01  4.3224492702e+01 -1.9526500882e+02  2.1599088067e+02  8.0641346140e+01 0. 9.
        3     1     3     0   102     0  2.5132482918e+01  1.7366824327e+01 -3.7622971920e+01  4.8466341938e+01  5.0000000000e-01 0. 9.
       -4     1     3     0     0   102 -1.2793383038e+01 -6.0591317029e+01 -7.1966941060e+01  9.4955089144e+01  1.5000000000e+00 0. 9.
       -3     1     4     0     0   103 -9.9097935750e+00  6.6866416149e+01 -1.5680362144e+02  1.7075405504e+02  5.0000000000e-01 0. 9.
        4     1     4     0   103     0 -2.4293063045e+00 -2.3641923447e+01 -3.8461387386e+01  4.5236825630e+01  1.5000000000e+00 0. 9.
#pdf    1   -1  2.783540e-02  3.389119e-01  9.232354e+01  4.812703e-01  1.089807e-01
</event>
<event>
     8  9999  1.000000e+00  1.097121e+02  7.833933e-03  1.229891e-01
        3    -1     0     0   101     0  0.0000000000e+00  0.0000000000e+00  3.0555943843e+01  3.0555943843e+01  0.0000000000e+00 0. 9.
       -2    -1     0     0     0   101  0.0000000000e+00  0.0000000000e+00 -7.2218494516e+02  7.2218494516e+02  0.0000000000e+00 0. 9.
       23     2     1     2     0     0  3.6042824858e+01  5.9410815985e+01 -9.9776244024e+01  1.5155666460e+02  9.0473164158e+01 0. 9.
      -24     2     1     2     0     0 -3.6042824858e+01 -5.9410815985e+01 -5.9185275730e+02  6.0118422441e+02  7.9398079814e+01 0. 9.
       15     1     3     0     0     0  6.3190542890e+01  5.6774954177e+01 -6.3198686210e+01  1.0589462576e+02  1.7769900000e+00 0. 9.
      -15     1     3     0     0     0 -2.7147718032e+01  2.6358618082e+00 -3.6577557814e+01  4.5662038839e+01  1.7769900000e+00 0. 9.
       15     1     4     0     0     0  4.3072165508e+00 -4.7931171688e+01 -1.5467667586e+02  1.6199994161e+02  1.7769900000e+00 0. 9.
      -16     1     4     0     0     0 -4.0350041408e+01 -1.1479644296e+01 -4.3717608144e+02  4.3918428279e+02  0.0000000000e+00 0. 9.
#pdf    3   -2  3.117953e-02  7.369234e-01  1.055120e+02  1.842415e-01  1.114626e-02
</event>
<event>
     8  9999  1.000000e+00  1.051694e+02  7.830172e-03  1.237746e-01
        2    -1     0     0   101     0  0.0000000000e+00  0.0000000000e+00  1.3632099225e+02  1.3632099225e+02  0.0000000000e+00 0. 9.
       -1    -1     0     0     0   101  0.0000000000e+00  0.0000000000e+00 -1.3822322065e+02  1.3822322065e+02  0.0000000000e+00 0. 9.
       23     2     1     2     0     0  5.3117538294e+01 -2.6774775394e+01 -8.8986157256e+01  1.4181599889e+02  9.3031606917e+01 0. 9.
       24     2     1     2     0     0 -5.3117538294e+01  2.6774775394e+01  8.7083928853e+01  1.3272821402e+02  8.0590363319e+01 0. 9.
        5     1     3     0   102     0  4.1209113534e+01 -1.0046734073e+01  7.2486217111e+00  4.3297926284e+01  4.8000000000e+00 0. 9.
       -5     1     3     0     0   102  1.1908424760e+01 -1.6728041321e+01 -9.6234778967e+01  9.8518072604e+01  4.8000000000e+00 0. 9.
       -3     1     4     0     0   103 -5.2521026736e+01  5.2327131948e+01  5.9230661296e+01  9.4895248695e+01  5.0000000000e-01 0. 9.
        4     1     4     0   103     0 -5.9651155795e-01 -2.5552356554e+01  2.7853267557e+01  3.7832965322e+01  1.5000000000e+00 0. 9.
#pdf    2   -1  1.391031e-01  1.410441e-01  1.001657e+02  5.457834e-01  2.928293e-01
</event>
<event>
     8  9999  1.000000e+00  8.777297e+01  7.814129e-03  1.272496e-01
        1    -1     0     0   101     0  0.0000000000e+00  0.0000000000e+00  1.2215369025e+02  1.2215369025e+02  0.0000000000e+00 0. 9.
       -1    -1     0     0     0   101  0.0000000000e+00  0.0000000000e+00 -2.6494088850e+02  2.6494088850e+02  0.0000000000e+00 0. 9.
      -24     2     1     2     0     0 -1.6094130172e+01  3.9438381892e+00  9.8506967349e+01  1.2812532278e+02  8.0236530553e+01 0. 9.
       24     2     1     2     0     0  1.6094130172e+01 -3.9438381892e+00 -2.4129416560e+02  2.5896925597e+02  9.2561473066e+01 0. 9.
        1     1     3     0   102     0 -2.3963935318e+01  3.4502018277e+01  8.2863118508e+01  9.2903523991e+01  3.3000000000e-01 0. 9.
       -2     1     3     0     0   102  7.8698051458e+00 -3.0558180087e+01  1.5643848841e+01  3.5221798788e+01  3.3000000000e-01 0. 9.
      -11     1     4     0     0     0  3.9697893508e+01 -2.8345206874e+01 -1.9817068818e+02  2.0408575442e+02  5.1100000000e-04 0. 9.
       12     1     4     0     0     0 -2.3603763336e+01  2.4401368684e+01 -4.3123477421e+01  5.4883501548e+01  0.0000000000e+00 0. 9.
#pdf    1   -1  1.246466e-01  2.703478e-01  8.192970e+01  3.150334e-01  1.642131e-01
</event>
<event>
     8  9999  1.000000e+00  8.579667e+01  7.812114e-03  1.277012e-01
        2    -1     0     0   101     0  0.0000000000e+00  0.0000000000e+00  2.2639470388e+01  2.2639470388e+01  0.0000000000e+00 0. 9.
       -2    -1     0     0     0   101  0.0000000000e+00  0.0000000000e+00 -4.2410952423e+02  4.2410952423e+02  0.0000000000e+00 0. 9.
      -24     2     1     2     0     0  2.1871363924e+01 -2.4352820958e+01 -3.0945903016e+02  3.2125598951e+02  7.9806660127e+01 0. 9.
       24     2     1     2     0     0 -2.1871363924e+01  2.4352820958e+01 -9.2011023681e+01  1.2549300511e+02  7.8810211287e+01 0. 9.
        1     1     3     0   102     0  4.7520887243e+01 -2.9232885997e+01 -1.5797771324e+02  1.6754063127e+02  3.3000000000e-01 0. 9.
       -2     1     3     0     0   102 -2.5649523318e+01  4.8800650392e+00 -1.5148131692e+02  1.5371535824e+02  3.3000000000e-01 0. 9.
       -3     1     4     0     0   103 -4.9316044182e+01  1.9572267891e+00 -6.0313838055e+01  7.7935306578e+01  5.0000000000e-01 0. 9.
        4     1     4     0   103     0  2.7444680258e+01  2.2395594169e+01 -3.1697185626e+01  4.7557698528e+01  1.5000000000e+00 0. 9.
#pdf    2   -2  2.310150e-02  4.327648e-01  8.533736e+01  6.206084e-01  1.906328e-01
</event>
<event>
     8  9999  1.000000e+00  1.119193e+02  7.835706e-03  1.226226e-01
        1    -1     0     0   101     0  0.0000000000e+00  0.0000000000e+00  1.9211246812e+02  1.9211246812e+02  0.0000000000e+00 0. 9.
       -1    -1     0     0     0   101  0.0000000000e+00  0.0000000000e+00 -7.8894002441e+01  7.8894002441e+01  0.0000000000e+00 0. 9.
       23     2     1     2     0     0 -5.5620652796e+01  3.4752735241e+01 -3.1262367612e-01  1.1076030600e+02  8.9254344585e+01 0. 9.
       23     2     1     2     0     0  5.5620652796e+01 -3.4752735241e+01  1.1353108935e+02  1.6024616456e+02  9.2130968639e+01 0. 9.
       16     1     3     0     0     0  1.4566738067e+01 -1.6823937902e+01 -7.1966869350e+00  2.3388609349e+01  0.0000000000e+00 0. 9.
      -16     1     3     0     0     0 -7.0187390863e+01  5.1576673143e+01  6.8840632589e+00  8.7371696651e+01  0.0000000000e+00 0. 9.
       12     1     4     0     0     0  2.5110812882e+01 -4.2636473265e+01  1.1843395928e+02  1.2835507191e+02  0.0000000000e+00 0. 9.
      -12     1     4     0     0     0  3.0509839914e+01  7.8837380235e+00 -4.9028699218e+00  3.1891092648e+01  0.0000000000e+00 0. 9.
#pdf    1   -1  1.960331e-01  8.050408e-02  1.107599e+02  2.305652e-01  3.663876e-01
</event>
<event>
     8  9999  1.000000e+00  1.063629e+02  7.831175e-03  1.235640e-01
        2    -1     0     0   101     0  0.0000000000e+00  0.0000000000e+00  1.3075733247e+02  1.3075733247e+02  0.0000000000e+00 0. 9.
       -2    -1     0     0     0   101  0.0000000000e+00  0.0000000000e+00 -2.0295412024e+02  2.0295412024e+02  0.0000000000e+00 0. 9.
      -24     2     1     2     0     0  6.8867653016e+01  1.1107848506e+01 -1.6247309877e+02  1.9416689675e+02  8.0231776992e+01 0. 9.
       24     2     1     2     0     0 -6.8867653016e+01 -1.1107848506e+01  9.0276311004e+01  1.3954455596e+02  8.0353797916e+01 0. 9.
       13     1     3     0     0     0  3.8933610157e+00  2.5660616105e+01 -1.0044900735e+01  2.7830498984e+01  1.0566000000e-01 0. 9.
      -14     1     3     0     0     0  6.4974292000e+01 -1.4552767599e+01 -1.5242819804e+02  1.6633639777e+02  0.0000000000e+00 0. 9.
      -11     1     4     0     0     0 -2.6060147963e+01 -2.0802362815e+01 -5.8664461278e+00  3.3856827982e+01  5.1100000000e-04 0. 9.
       12     1     4     0     0     0 -4.2807505053e+01  9.6945143092e+00  9.6142757132e+01  1.0568772798e+02  0.0000000000e+00 0. 9.
#pdf    2   -2  1.334258e-01  2.070960e-01  1.063169e+02  5.483278e-01  4.779196e-01
</event>
<event>
     8  9999  1.000000e+00  9.008183e+01  7.816429e-03  1.267387e-01
        2    -1     0     0   101     0  0.0000000000e+00  0.0000000000e+00  1.0983882838e+02  1.0983882838e+02  0.0000000000e+00 0. 9.
       -1    -1     0     0     0   101  0.0000000000e+00  0.0000000000e+00 -2.0982588213e+02  2.0982588213e+02  0.0000000000e+00 0. 9.
       23     2     1     2     0     0 -2.3646781145e+01 -2.6684806102e+01 -1.7975339218e+02  2.0489019960e+02  9.1637671063e+01 0. 9.
       24     2     1     2     0     0  2.3646781145e+01  2.6684806102e+01  7.9766338425e+01  1.1477451091e+02  7.4426275420e+01 0. 9.
        1     1     3     0   102     0 -3.0814840352e+00 -5.7217340671e+01 -7.8780771322e+01  9.7415801836e+01  3.3000000000e-01 0. 9.
       -1     1     3     0     0   102 -2.0565297110e+01  3.0532534569e+01 -1.0097262086e+02  1.0747439777e+02  3.3000000000e-01 0. 9.
       -1     1     4     0     0   103 -2.3582985958e+01  2.4549763885e+01  4.3217458418e+01  5.5015504593e+01  3.3000000000e-01 0. 9.
        2     1     4     0   103     0  4.7229767103e+01  2.1350422168e+00  3.6548880008e+01  5.9759006314e+01  3.3000000000e-01 0. 9.
#pdf    2   -1  1.120804e-01  2.141080e-01  8.252587e+01  5.647136e-01  2.173195e-01
</event>
<event>
     8  9999  1.000000e+00  1.025601e+02  7.827939e-03  1.242460e-01
        2    -1     0     0   101     0  0.0000000000e+00  0.0000000000e+00  1.4566891552e+02  1.4566891552e+02  0.0000000000e+00 0. 9.
       -1    -1     0     0     0   101  0.0000000000e+00  0.0000000000e+00 -7.6750333694e+01  7.6750333694e+01  0.0000000000e+00 0. 9.
       23     2     1     2     0     0 -5.7797975283e+01 -3.6856133312e-01  6.2469669713e+01  1.2386042972e+02  8.9990025177e+01 0. 9.
       24     2     1     2     0     0  5.7797975283e+01  3.6856133312e-01  6.4489121161e+00  9.8558819500e+01  7.9570790177e+01 0. 9.
        1     1     3     0   102     0  2.0724987758e+00  3.1076561736e+01  4.3723842639e+01  5.3683621856e+01  3.3000000000e-01 0. 9.
       -1     1     3     0     0   102 -5.9870474059e+01 -3.1445123069e+01  1.8745827074e+01  7.0176807861e+01  3.3000000000e-01 0. 9.
       -3     1     4     0     0   103  4.0330282773e+01 -1.5061192660e+01 -3.1951104541e+01  5.3614310723e+01  5.0000000000e-01 0. 9.
        4     1     4     0   103     0  1.7467692510e+01  1.5429753993e+01  3.8400016657e+01  4.4944508777e+01  1.5000000000e+00 0. 9.
#pdf    2   -1  1.486418e-01  7.831667e-02  9.834761e+01  5.391569e-01  3.706301e-01
</event>
<event>
     8  9999  1.000000e+00  7.880600e+01  7.804600e-03  1.294150e-01
        2    -1     0     0   101     0  0.0000000000e+00  0.0000000000e+00  1.0245847370e+02  1.0245847370e+02  0.0000000000e+00 0. 9.
       -2    -1     0     0     0   101  0.0000000000e+00  0.0000000000e+00 -8.5346098126e+01  8.5346098126e+01  0.0000000000e+00 0. 9.
      -24     2     1     2     0     0  2.7494980578e+00  4.7149063129e+00 -4.2010659245e+01  8.9099203631e+01  7.8383560243e+01 0. 9.
       24     2     1     2     0     0 -2.7494980578e+00 -4.7149063129e+00  5.9123034817e+01  9.8705368194e+01  7.8850658736e+01 0. 9.
       15     1     3     0     0     0 -3.3359471599e+01  1.1475724169e+01 -3.8416329102e+01  5.2187341623e+01  1.7769900000e+00 0. 9.
      -16     1     3     0     0     0  3.6108969656e+01 -6.7608178560e+00 -3.5943301429e+00  3.6911862008e+01  0.0000000000e+00 0. 9.
      -13     1     4     0     0     0  2.8931724525e+01  2.1888632814e+01  3.6889039368e+01  5.1739436796e+01  1.0566000000e-01 0. 9.
       14     1     4     0     0     0 -3.1681222583e+01 -2.6603539127e+01  2.2233995449e+01  4.6965931397e+01  0.0000000000e+00 0. 9.
#pdf    2   -2  1.045495e-01  8.708786e-02  7.857336e+01  5.683339e-01  5.731016e-01
</event>
<event>
     8  9999  1.000000e+00  8.381456e+01  7.810046e-03  1.281680e-01
        1    -1     0     0   101     0  0.0000000000e+00  0.0000000000e+00  9.3281078893e+01  9.3281078893e+01  0.0000000000e+00 0. 9.
       -1    -1     0     0     0   101  0.0000000000e+00  0.0000000000e+00 -7.8694368603e+01  7.8694368603e+01  0.0000000000e+00 0. 9.
      -24     2     1     2     0     0 -1.3683128215e+00 -1.6978912492e+01 -1.0582867305e+01  8.2337587857e+01  7.9858158909e+01 0. 9.
       24     2     1     2     0     0  1.3683128215e+00  1.6978912492e+01  2.5169577595e+01  8.9637859640e+01  8.4328420447e+01 0. 9.
       13     1     3     0     0     0  2.5426897766e+01 -1.1127855601e+01 -3.5650548618e+01  4.5181069942e+01  1.0566000000e-01 0. 9.
      -14     1     3     0     0     0 -2.6795210587e+01 -5.8510568909e+00  2.5067681313e+01  3.7156517915e+01  0.0000000000e+00 0. 9.
       -3     1     4     0     0   102 -9.0839533474e+00  4.9542178390e+01  6.9171700927e+00  5.0843317064e+01  5.0000000000e-01 0. 9.
        4     1     4     0   102     0  1.0452266169e+01 -3.2563265898e+01  1.8252407502e+01  3.8794542575e+01  1.5000000000e+00 0. 9.
#pdf    1   -1  9.518477e-02  8.030038e-02  8.165465e+01  3.504162e-01  3.697129e-01
</event>
<event>
     8  9999  1.000000e+00  8.472354e+01  7.811000e-03  1.279521e-01
        2    -1     0     0   101     0  0.0000000000e+00  0.0000000000e+00  4.4860048508e+01  4.4860048508e+01  0.0000000000e+00 0. 9.
       -2    -1     0     0     0   101  0.0000000000e+00  0.0000000000e+00 -1.6763611676e+02  1.6763611676e+02  0.0000000000e+00 0. 9.
      -24     2     1     2     0     0 -7.1210149942e+00  1.9315341527e+01 -8.4890670817e+01  1.2086583249e+02  8.3536412406e+01 0. 9.
       24     2     1     2     0     0  7.1210149942e+00 -1.9315341527e+01 -3.7885397437e+01  9.1630332784e+01  8.0851860055e+01 0. 9.
        3     1     3     0   102     0  4.3867608138e+00  2.9562892693e+01 -9.6814882768e+01  1.0132413247e+02  5.0000000000e-01 0. 9.
       -4     1     3     0     0   102 -1.1507775808e+01 -1.0247551166e+01  1.1924211951e+01  1.9541700018e+01  1.5000000000e+00 0. 9.
       -3     1     4     0     0   103  1.6775028963e+01 -1.4052603259e+01 -6.1640192730e+01  6.5411318706e+01  5.0000000000e-01 0. 9.
        4     1     4     0   103     0 -9.6540139685e+00 -5.2627382680e+00  2.3754795294e+01  2.6219014078e+01  1.5000000000e+00 0. 9.
#pdf    2   -2  4.577556e-02  1.710573e-01  8.343150e+01  5.843018e-01  5.241889e-01
</event>
<event>
     8  9999  1.000000e+00  1.012427e+02  7.826790e-03  1.244900e-01
        1    -1     0     0   101     0  0.0000000000e+00  0.0000000000e+00  2.9922400497e+02  2.9922400497e+02  0.0000000000e+00 0. 9.
       -1    -1     0     0     0   101  0.0000000000e+00  0.0000000000e+00 -3.5541999779e+01  3.5541999779e+01  0.0000000000e+00 0. 9.
      -24     2     1     2     0     0 -1.7614391523e+01  4.0191983840e+01  1.1647309475e+02  1.6116107591e+02  1.0237796751e+02 0. 9.
       24     2     1     2     0     0  1.7614391523e+01 -4.0191983840e+01  1.4720891044e+02  1.7360492885e+02  8.0886004060e+01 0. 9.
        3     1     3     0   102     0  3.7979550654e+01  1.3990111023e+00  6.7682376703e+01  7.7624465319e+01  5.0000000000e-01 0. 9.
       -4     1     3     0     0   102 -5.5593942177e+01  3.8792972737e+01  4.8790718051e+01  8.3536610588e+01  1.5000000000e+00 0. 9.
      -13     1     4     0     0     0 -2.9279351570e+01  1.4054740820e+00  4.5037422604e+01  5.3736732173e+01  1.0566000000e-01 0. 9.
       14     1     4     0     0     0  4.6893743093e+01 -4.1597457922e+01  1.0217148784e+02  1.1986819667e+02  0.0000000000e+00 0. 9.
#pdf    1   -1  3.053306e-01  3.626735e-02  9.202287e+01  1.334066e-01  4.512093e-01
</event>
<event>
     8  9999  1.000000e+00  9.229750e+01  7.818582e-03  1.262642e-01
       -3    -1     0     0     0   101  0.0000000000e+00  0.0000000000e+00  7.3604078739e+01  7.3604078739e+01  0.0000000000e+00 0. 9.
        3    -1     0     0   101     0  0.0000000000e+00  0.0000000000e+00 -1.8028804374e+02  1.8028804374e+02  0.0000000000e+00 0. 9.
      -24     2     1     2     0     0  4.2186064750e+01 -1.4389781912e+01 -1.2929765062e+02  1.5885462146e+02  8.0809519362e+01 0. 9.
       24     2     1     2     0     0 -4.2186064750e+01  1.4389781912e+01  2.2613685624e+01  9.5037501018e+01  8.0833272479e+01 0. 9.
        1     1     3     0   102     0 -1.4303986863e+01 -2.4629291332e+01 -7.3369537493e+01  7.8704535852e+01  3.3000000000e-01 0. 9.
       -2     1     3     0     0   102  5.6490051614e+01  1.0239509420e+01 -5.5928113127e+01  8.0150085605e+01  3.3000000000e-01 0. 9.
       -3     1     4     0     0   103  6.5935045714e+00  1.5609211943e+01 -2.2766828972e+01  2.8384860427e+01  5.0000000000e-01 0. 9.
        4     1     4     0   103     0 -4.8779569322e+01 -1.2194300310e+00  4.5380514596e+01  6.6652640591e+01  1.5000000000e+00 0. 9.
#pdf   -3    3  7.510620e-02  1.839674e-01  9.228710e+01  8.491665e-02  2.339101e-02
</event>
<event>
     8  9999  1.000000e+00  1.120345e+02  7.835797e-03  1.226037e-01
        2    -1     0     0   101     0  0.0000000000e+00  0.0000000000e+00  3.5170383995e+02  3.5170383995e+02  0.0000000000e+00 0. 9.
       -1    -1     0     0     0   101  0.0000000000e+00  0.0000000000e+00 -1.4621250856e+02  1.4621250856e+02  0.0000000000e+00 0. 9.
       23     2     1     2     0     0  7.1552764485e+01 -5.2121489721e+00  3.2008100762e+02  3.4061410917e+02  9.1755955257e+01 0. 9.
       24     2     1     2     0     0 -7.1552764485e+01  5.2121489721e+00 -1.1458967623e+02  1.5730223935e+02  8.0412909430e+01 0. 9.
        4     1     3     0   102     0  7.1489256843e+01 -3.9257116610e+01  2.4329314883e+02  2.5660405554e+02  1.5000000000e+00 0. 9.
       -4     1     3     0     0   102  6.3507641577e-02  3.4044967637e+01  7.6787858783e+01  8.4010053631e+01  1.5000000000e+00 0. 9.
       -3     1     4     0     0   103 -5.1324334450e+01  1.0892559581e+01 -1.2368795938e+02  1.3435697398e+02  5.0000000000e-01 0. 9.
        4     1     4     0   103     0 -2.0228430035e+01 -5.6804106086e+00  9.0982831541e+00  2.2945265366e+01  1.5000000000e+00 0. 9.
#pdf    2   -1  3.588815e-01  1.491964e-01  1.077646e+02  2.724547e-01  2.822996e-01
</event>
<event>
     8  9999  1.000000e+00  8.190719e+01  7.808010e-03  1.286310e-01
        2    -1     0     0   101     0  0.0000000000e+00  0.0000000000e+00  1.4756213009e+02  1.4756213009e+02  0.0000000000e+00 0. 9.
       -2    -1     0     0     0   101  0.0000000000e+00  0.0000000000e+00 -5.2107652045e+01  5.2107652045e+01  0.0000000000e+00 0. 9.
      -24     2     1     2     0     0 -6.5391936945e+00 -2.5251889565e+00  1.1793589428e+01  8.2183743620e+01  8.1030496299e+01 0. 9.
       24     2     1     2     0     0  6.5391936945e+00  2.5251889565e+00  8.3660888615e+01  1.1748603851e+02  8.2186904845e+01 0. 9.
        3     1     3     0   102     0 -4.6485395175e+00  3.9116159831e+01  8.7982157703e+00  4.0365102258e+01  5.0000000000e-01 0. 9.
       -4     1     3     0     0   102 -1.8906541770e+00 -4.1641348787e+01  2.9953736576e+00  4.1818641362e+01  1.5000000000e+00 0. 9.
       -1     1     4     0     0   103 -1.5264665021e+01 -3.4995611428e+01  3.0545863202e+01  4.8896436232e+01  3.3000000000e-01 0. 9.
        2     1     4     0   103     0  2.1803858716e+01  3.7520800384e+01  5.3115025413e+01  6.8589602280e+01  3.3000000000e-01 0. 9.
#pdf    2   -2  1.505736e-01  5.317107e-02  8.133314e+01  5.423606e-01  5.806110e-01
</event>
<event>
     8  9999  1.000000e+00  8.350171e+01  7.809715e-03  1.282430e-01
        2    -1     0     0   101     0  0.0000000000e+00  0.0000000000e+00  2.1808298284e+02  2.1808298284e+02  0.0000000000e+00 0. 9.
       -2    -1     0     0     0   101  0.0000000000e+00  0.0000000000e+00 -1.2526383966e+02  1.2526383966e+02  0.0000000000e+00 0. 9.
      -24     2     1     2     0     0  1.9641256766e+01 -2.0185076544e+01 -1.0142153266e+02  1.3272083244e+02  8.0841052655e+01 0. 9.
       24     2     1     2     0     0 -1.9641256766e+01  2.0185076544e+01  1.9424067584e+02  2.1062599005e+02  7.6424153601e+01 0. 9.
        3     1     3     0   102     0 -2.2405938055e+01 -1.1075988989e+01 -2.8524443593e+00  2.5161280393e+01  5.0000000000e-01 0. 9.
       -4     1     3     0     0   102  4.2047194821e+01 -9.1090875547e+00 -9.8569088300e+01  1.0755955205e+02  1.5000000000e+00 0. 9.
      -15     1     4     0     0     0 -5.0546014866e+00 -1.9744394930e+01  1.2489299802e+01  2.3969364413e+01  1.7769900000e+00 0. 9.
       16     1     4     0     0     0 -1.4586655279e+01  3.9929471474e+01  1.8175137604e+02  1.8665662564e+02  0.0000000000e+00 0. 9.
#pdf    2   -2  2.225337e-01  1.278202e-01  8.144856e+01  4.677006e-01  5.573479e-01
</event>
<event>
     8  9999  1.000000e+00  9.108728e+01  7.817412e-03  1.265215e-01
        2    -1     0     0   101     0  0.0000000000e+00  0.0000000000e+00  7.1353544837e+01  7.1353544837e+01  0.0000000000e+00 0. 9.
       -2    -1     0     0     0   101  0.0000000000e+00  0.0000000000e+00 -1.1700593352e+02  1.1700593352e+02  0.0000000000e+00 0. 9.
      -24     2     1     2     0     0  4.3059016431e+01 -5.9867407602e+00 -1.5404440865e+01  9.2394565313e+01  8.0059596177e+01 0. 9.
       24     2     1     2     0     0 -4.3059016431e+01  5.9867407602e+00 -3.0247947820e+01  9.5964913045e+01  8.0027534184e+01 0. 9.
        3     1     3     0   102     0 -4.1951034303e+00  1.0337924384e+01 -3.6455801605e+01  3.8128034882e+01  5.0000000000e-01 0. 9.
       -4     1     3     0     0   102  4.7254119862e+01 -1.6324665145e+01  2.1051360740e+01  5.4266530431e+01  1.5000000000e+00 0. 9.
       -3     1     4     0     0   103 -5.1203098565e+01 -6.8212639287e+00 -4.9403573521e+01  7.1479018046e+01  5.0000000000e-01 0. 9.
        4     1     4     0   103     0  8.1440821334e+00  1.2808004689e+01  1.9155625701e+01  2.4485894999e+01  1.5000000000e+00 0. 9.
#pdf    2   -2  7.280974e-02  1.193938e-01  9.107319e+01  5.749863e-01  5.596006e-01
</event>
<event>
     8  9999  1.000000e+00  9.170367e+01  7.818010e-03  1.263899e-01
        2    -1     0     0   101     0  0.0000000000e+00  0.0000000000e+00  9.9834668015e+01  9.9834668015e+01  0.0000000000e+00 0. 9.
       -2    -1     0     0     0   101  0.0000000000e+00  0.0000000000e+00 -2.7160914671e+02  2.7160914671e+02  0.0000000000e+00 0. 9.
      -24     2     1     2     0     0  7.4493885172e+00  4.2136193478e+01 -2.3985041048e+02  2.5643378572e+02  7.9994467680e+01 0. 9.
       24     2     1     2     0     0 -7.4493885172e+00 -4.2136193478e+01  6.8075931788e+01  1.1501002901e+02  8.2231515205e+01 0. 9.
       15     1     3     0     0     0 -8.4244796136e+00 -2.0057164839e+01 -3.0791050258e+01  3.7742657399e+01  1.7769900000e+00 0. 9.
      -16     1     3     0     0     0  1.5873868131e+01  6.2193358317e+01 -2.0905936023e+02  2.1869112832e+02  0.0000000000e+00 0. 9.
      -13     1     4     0     0     0 -1.6035176781e+01 -6.5149161407e+01  4.1838864601e+01  7.9069854443e+01  1.0566000000e-01 0. 9.
       14     1     4     0     0     0  8.5857882640e+00  2.3012967929e+01  2.6237067187e+01  3.5940174563e+01  0.0000000000e+00 0. 9.
#pdf    2   -2  1.018721e-01  2.771522e-01  9.071972e+01  5.671257e-01  3.905765e-01
</event>
<event>
     8  9999  1.000000e+00  1.197459e+02  7.841728e-03  1.213948e-01
        1    -1     0     0   101     0  0.0000000000e+00  0.0000000000e+00  2.9237510919e+02  2.9237510919e+02  0.0000000000e+00 0. 9.
       -2    -1     0     0     0   101  0.0000000000e+00  0.0000000000e+00 -9.9700368888e+01  9.9700368888e+01  0.0000000000e+00 0. 9.
       23     2     1     2     0     0 -4.4535116446e+00  8.3368603672e+01  2.3752636226e+02  2.6783377160e+02  9.1356437099e+01 0. 9.
      -24     2     1     2     0     0  4.4535116446e+00 -8.3368603672e+01 -4.4851621957e+01  1.2424170647e+02  8.0337885155e+01 0. 9.
       13     1     3     0     0     0  1.6223269934e+01  8.3286118566e+01  2.3109385714e+02  2.4617910960e+02  1.0566000000e-01 0. 9.
      -13     1     3     0     0     0 -2.0676781579e+01  8.2485105696e-02  6.4325051198e+00  2.1654662002e+01  1.0566000000e-01 0. 9.
        3     1     4     0   102     0 -2.1103722022e+01 -9.9262117727e-01  8.5394071209e+00  2.2793065918e+01  5.0000000000e-01 0. 9.
       -4     1     4     0     0   102  2.5557233666e+01 -8.2375982495e+01 -5.3391029078e+01  1.0144864056e+02  1.5000000000e+00 0. 9.
#pdf    1   -2  2.983419e-01  1.017351e-01  1.158634e+02  1.352883e-01  5.636255e-01
</event>
<event>
     8  9999  1.000000e+00  1.339195e+02  7.851715e-03  1.194161e-01
        1    -1     0     0   101     0  0.0000000000e+00  0.0000000000e+00  2.4865286782e+02  2.4865286782e+02  0.0000000000e+00 0. 9.
       -1    -1     0     0     0   101  0.0000000000e+00  0.0000000000e+00 -9.1135029203e+01  9.1135029203e+01  0.0000000000e+00 0. 9.
      -24     2     1     2     0     0 -9.4798092702e+01 -5.0852696224e+01  1.5657822092e+02  2.0636006506e+02  8.0591948058e+01 0. 9.
       24     2     1     2     0     0  9.4798092702e+01  5.0852696224e+01  9.3961769985e-01  1.3342783197e+02  7.8926727846e+01 0. 9.
        1     1     3     0   102     0 -7.3946268001e+01 -5.1513578699e+00  5.2630209510e+01  9.0910037357e+01  3.3000000000e-01 0. 9.
       -2     1     3     0     0   102 -2.0851824702e+01 -4.5701338354e+01  1.0394801141e+02  1.1545002770e+02  3.3000000000e-01 0. 9.
       -3     1     4     0     0   103  8.0549626031e+01  4.3666496333e+01 -3.1790320598e+01  9.6983914334e+01  5.0000000000e-01 0. 9.
        4     1     4     0   103     0  1.4248466671e+01  7.1861998906e+00  3.2729938298e+01  3.6443917632e+01  1.5000000000e+00 0. 9.
#pdf    1   -1  2.537274e-01  9.299493e-02  1.334245e+02  1.707498e-01  3.472757e-01
</event>
<event>
     8  9999  1.000000e+00  9.911655e+01  7.824905e-03  1.248927e-01
        2    -1     0     0   101     0  0.0000000000e+00  0.0000000000e+00  8.2039529511e+01  8.2039529511e+01  0.0000000000e+00 0. 9.
       -2    -1     0     0     0   101  0.0000000000e+00  0.0000000000e+00 -1.2733494135e+02  1.2733494135e+02  0.0000000000e+00 0. 9.
      -24     2     1     2     0     0 -1.0712770337e+01  5.6216151378e+01 -4.8223662423e+01  1.1032143810e+02  8.1057257306e+01 0. 9.
       24     2     1     2     0     0  1.0712770337e+01 -5.6216151378e+01  2.9282505805e+00  9.9053032770e+01  8.0795479610e+01 0. 9.
        3     1     3     0   102     0 -7.7292435674e+00  7.7153725453e+01 -3.3276711713e+01  8.4380258946e+01  5.0000000000e-01 0. 9.
       -4     1     3     0     0   102 -2.9835267692e+00 -2.0937574075e+01 -1.4946950710e+01  2.5941179150e+01  1.5000000000e+00 0. 9.
       -1     1     4     0     0   103 -3.3394155799e+01 -2.2277632041e+01 -1.1115032877e+01  4.1654716260e+01  3.3000000000e-01 0. 9.
        2     1     4     0   103     0  4.4106926135e+01 -3.3938519337e+01  1.4043283457e+01  5.7398316510e+01  3.3000000000e-01 0. 9.
#pdf    2   -2  8.371381e-02  1.299336e-01  9.900974e+01  5.716267e-01  5.520605e-01
</event>
<event>
     8  9999  1.000000e+00  8.132417e+01  7.807379e-03  1.287754e-01
        2    -1     0     0   101     0  0.0000000000e+00  0.0000000000e+00  1.8351722507e+02  1.8351722507e+02  0.0000000000e+00 0. 9.
       -2    -1     0     0     0   101  0.0000000000e+00  0.0000000000e+00 -4.8442150923e+01  4.8442150923e+01  0.0000000000e+00 0. 9.
      -24     2     1     2     0     0 -7.5711023899e-01 -1.9074245193e+00  8.5279015324e+00  8.1247203439e+01  8.0772343522e+01 0. 9.
       24     2     1     2     0     0  7.5711023899e-01  1.9074245193e+00  1.2654717261e+02  1.5071217255e+02  8.1827627208e+01 0. 9.
       15     1     3     0     0     0 -1.3392803833e+01  1.4453820167e+01  3.9402575186e+01  4.4090823724e+01  1.7769900000e+00 0. 9.
      -16     1     3     0     0     0  1.2635693595e+01 -1.6361244686e+01 -3.0874673654e+01  3.7156379715e+01  0.0000000000e+00 0. 9.
      -15     1     4     0     0     0  2.8649289971e+01 -1.4109607428e+00  1.1785605090e+02  1.2130943513e+02  1.7769900000e+00 0. 9.
       16     1     4     0     0     0 -2.7892179732e+01  3.3183852622e+00  8.6911217161e+00  2.9402737417e+01  0.0000000000e+00 0. 9.
#pdf    2   -2  1.872625e-01  4.943077e-02  8.079841e+01  5.089491e-01  5.821750e-01
</event>
<event>
     8  9999  1.000000e+00  8.231210e+01  7.808446e-03  1.285316e-01
        2    -1     0     0   101     0  0.0000000000e+00  0.0000000000e+00  5.0700246100e+01  5.0700246100e+01  0.0000000000e+00 0. 9.
       -2    -1     0     0     0   101  0.0000000000e+00  0.0000000000e+00 -1.6273299316e+02  1.6273299316e+02  0.0000000000e+00 0. 9.
      -24     2     1     2     0     0 -2.4861534069e+01  3.5901588337e+00 -1.0000872412e+02  1.2833399838e+02  7.6399509959e+01 0. 9.
       24     2     1     2     0     0  2.4861534069e+01 -3.5901588337e+00 -1.2024022936e+01  8.5099240882e+01  8.0413422725e+01 0. 9.
        1     1     3     0   102     0  1.8035777396e+01 -2.1545049523e+01 -2.1398042161e+01  3.5319449791e+01  3.3000000000e-01 0. 9.
       -2     1     3     0     0   102 -4.2897311466e+01  2.5135208357e+01 -7.8610681959e+01  9.3014548584e+01  3.3000000000e-01 0. 9.
       -1     1     4     0     0   103  1.9583201570e+01  1.5739046934e+01 -4.2058936637e+01  4.8992677342e+01  3.3000000000e-01 0. 9.
        2     1     4     0   103     0  5.2783324995e+00 -1.9329205767e+01  3.0034913702e+01  3.6106563540e+01  3.3000000000e-01 0. 9.
#pdf    2   -2  5.173495e-02  1.660541e-01  8.042307e+01  5.811490e-01  5.298081e-01
</event>
<event>
     8  9999  1.000000e+00  7.492895e+01  7.800147e-03  1.304543e-01
        2    -1     0     0   101     0  0.0000000000e+00  0.0000000000e+00  5.2760262107e+01  5.2760262107e+01  0.0000000000e+00 0. 9.
       -2    -1     0     0     0   101  0.0000000000e+00  0.0000000000e+00 -1.3220152910e+02  1.3220152910e+02  0.0000000000e+00 0. 9.
      -24     2     1     2     0     0 -3.1021834522e+00  1.1328944957e+01 -8.2263854101e+01  1.1484066129e+02  7.9265801320e+01 0. 9.
       24     2     1     2     0     0  3.1021834522e+00 -1.1328944957e+01  2.8225871124e+00  7.0121129909e+01  6.9072695949e+01 0. 9.
        1     1     3     0   102     0  6.3986648417e+00  3.6294667354e+01 -7.9937914460e+01  8.8025137650e+01  3.3000000000e-01 0. 9.
       -2     1     3     0     0   102 -9.5008482938e+00 -2.4965722397e+01 -2.3259396406e+00  2.6815523644e+01  3.3000000000e-01 0. 9.
       -1     1     4     0     0   103  1.7629134859e+01 -3.5016534586e+01  1.1758282157e+01  4.0930553253e+01  3.3000000000e-01 0. 9.
        2     1     4     0   103     0 -1.4526951406e+01  2.3687589629e+01 -8.9356950442e+00  2.9190576656e+01  3.3000000000e-01 0. 9.
#pdf    2   -2  5.383700e-02  1.348995e-01  7.006430e+01  5.800809e-01  5.565291e-01
</event>
<event>
     8  9999  1.000000e+00  9.262128e+01  7.818893e-03  1.261961e-01
        2    -1     0     0   101     0  0.0000000000e+00  0.0000000000e+00  8.2548856802e+01  8.2548856802e+01  0.0000000000e+00 0. 9.
       -1    -1     0     0     0   101  0.0000000000e+00  0.0000000000e+00 -1.9472566770e+02  1.9472566770e+02  0.0000000000e+00 0. 9.
       23     2     1     2     0     0 -2.9450482341e+01 -8.8074640825e+00 -1.5251370812e+02  1.8213186349e+02  9.4692566762e+01 0. 9.
       24     2     1     2     0     0  2.9450482341e+01  8.8074640825e+00  4.0336897223e+01  9.5142661012e+01  8.0499430639e+01 0. 9.
        5     1     3     0   102     0  2.0048734110e+01 -3.2585614454e+01 -9.4706128692e+01  1.0225490121e+02  4.8000000000e+00 0. 9.
       -5     1     3     0     0   102 -4.9499216451e+01  2.3778150371e+01 -5.7807579425e+01  7.9876962281e+01  4.8000000000e+00 0. 9.
       -3     1     4     0     0   103 -2.5483605204e+01 -7.5824935785e+00  3.1127370049e+00  2.6774007446e+01  5.0000000000e-01 0. 9.
        4     1     4     0   103     0  5.4934087545e+01  1.6389957661e+01  3.7224160218e+01  6.8368653566e+01  1.5000000000e+00 0. 9.
#pdf    2   -1  8.423353e-02  1.986997e-01  8.616879e+01  5.728252e-01  2.323524e-01
</event>
<event>
     8  9999  1.000000e+00  8.036959e+01  7.806335e-03  1.290148e-01
        2    -1     0     0   101     0  0.0000000000e+00  0.0000000000e+00  2.1033258955e+01  2.1033258955e+01  0.0000000000e+00 0. 9.
       -2    -1     0     0     0   101  0.0000000000e+00  0.0000000000e+00 -3.0875537013e+02  3.0875537013e+02  0.0000000000e+00 0. 9.
      -24     2     1     2     0     0 -3.9054516594e+00  7.3544494729e+00 -1.3201272989e+02  1.5462028867e+02  8.0067049001e+01 0. 9.
       24     2     1     2     0     0  3.9054516594e+00 -7.3544494729e+00 -1.5570938128e+02  1.7516834041e+02  7.9807240172e+01 0. 9.
        3     1     3     0   102     0 -1.4781749156e+01 -3.3420914817e+01 -4.5574198512e+01  5.8418449357e+01  5.0000000000e-01 0. 9.
       -4     1     3     0     0   102  1.0876297497e+01  4.0775364290e+01 -8.6438531383e+01  9.6201839317e+01  1.5000000000e+00 0. 9.
       -1     1     4     0     0   103 -1.6018016136e+01 -3.8931489438e+01 -7.0091537162e+01  8.1762890069e+01  3.3000000000e-01 0. 9.
        2     1     4     0   103     0  1.9923467795e+01  3.1577039965e+01 -8.5617844117e+01  9.3405450340e+01  3.3000000000e-01 0. 9.
#pdf    2   -2  2.146251e-02  3.150565e-01  8.024049e+01  6.252105e-01  3.419293e-01
</event>
<event>
     8  9999  1.000000e+00  8.412108e+01  7.810369e-03  1.280948e-01
        2    -1     0     0   101     0  0.0000000000e+00  0.0000000000e+00  3.5544350857e+01  3.5544350857e+01  0.0000000000e+00 0. 9.
       -2    -1     0     0     0   101  0.0000000000e+00  0.0000000000e+00 -2.0353349249e+02  2.0353349249e+02  0.0000000000e+00 0. 9.
      -24     2     1     2     0     0  1.5129531235e+01 -2.4084582719e+01 -1.0141968555e+02  1.3160741235e+02  7.8902398748e+01 0. 9.
       24     2     1     2     0     0 -1.5129531235e+01  2.4084582719e+01 -6.6569456086e+01  1.0747043100e+02  7.9431928189e+01 0. 9.
        3     1     3     0   102     0 -5.1413773071e+00  2.4203646667e+01 -1.0951352925e+01  2.7063488384e+01  5.0000000000e-01 0. 9.
       -4     1     3     0     0   102  2.0270908542e+01 -4.8288229386e+01 -9.0468332626e+01  1.0454392397e+02  1.5000000000e+00 0. 9.
      -11     1     4     0     0     0  3.0963439764e+01  2.2055617534e+01 -3.3926142199e+01  5.0952605346e+01  5.1100000000e-04 0. 9.
       12     1     4     0     0     0 -4.6092970998e+01  2.0289651846e+00 -3.2643313887e+01  5.6517825654e+01  0.0000000000e+00 0. 9.
#pdf    2   -2  3.626975e-02  2.076872e-01  8.387227e+01  5.926265e-01  4.848411e-01
</event>
<event>
     8  9999  1.000000e+00  1.389239e+02  7.854996e-03  1.187811e-01
        2    -1     0     0   101     0  0.0000000000e+00  0.0000000000e+00  2.9511033585e+02  2.9511033585e+02  0.0000000000e+00 0. 9.
       -2    -1     0     0     0   101  0.0000000000e+00  0.0000000000e+00 -6.5739046778e+01  6.5739046778e+01  0.0000000000e+00 0. 9.
      -24     2     1     2     0     0  1.3771081281e+01  1.1166891712e+02  1.0150038610e+02  1.7184736525e+02  8.1053061845e+01 0. 9.
       24     2     1     2     0     0 -1.3771081281e+01 -1.1166891712e+02  1.2787090297e+02  1.8900201737e+02  8.1921944653e+01 0. 9.
        1     1     3     0   102     0  1.6905279660e+01 -8.1339124264e+00  1.5529980045e+01  2.4356481518e+01  3.3000000000e-01 0. 9.
       -2     1     3     0     0   102 -3.1341983789e+00  1.1980282954e+02  8.5970406054e+01  1.4749088373e+02  3.3000000000e-01 0. 9.
       -1     1     4     0     0   103  2.5985912524e+01 -1.2334797409e+01  1.1668430043e+01  3.1043131874e+01  3.3000000000e-01 0. 9.
        2     1     4     0   103     0 -3.9756993805e+01 -9.9334119709e+01  1.1620247292e+02  1.5795888550e+02  3.3000000000e-01 0. 9.
#pdf    2   -2  3.011330e-01  6.708066e-02  1.386693e+02  3.425089e-01  5.744993e-01
</event>
<event>
     8  9999  1.000000e+00  1.306543e+02  7.849509e-03  1.198471e-01
        1    -1     0     0   101     0  0.0000000000e+00  0.0000000000e+00  1.8055286573e+02  1.8055286573e+02  0.0000000000e+00 0. 9.
       -2    -1     0     0     0   101  0.0000000000e+00  0.0000000000e+00 -2.8241977954e+02  2.8241977954e+02  0.0000000000e+00 0. 9.
       23     2     1     2     0     0  4.8382685083e+01  8.6490857008e+01  1.3737972208e+02  1.9194835988e+02  9.0274205953e+01 0. 9.
      -24     2     1     2     0     0 -4.8382685083e+01 -8.6490857008e+01 -2.3924663589e+02  2.7102428539e+02  7.9960352214e+01 0. 9.
       12     1     3     0     0     0  2.8123992070e+01  6.7930149635e+01  1.4573496545e+02  1.6323034128e+02  0.0000000000e+00 0. 9.
      -12     1     3     0     0     0  2.0258693013e+01  1.8560707373e+01 -8.3552433685e+00  2.8718018604e+01  0.0000000000e+00 0. 9.
        1     1     4     0   102     0 -9.0256445497e+00 -1.5425827412e+01  5.0624224186e-01  1.7882494012e+01  3.3000000000e-01 0. 9.
       -2     1     4     0     0   102 -3.9357040533e+01 -7.1065029596e+01 -2.3975287813e+02  2.5314179138e+02  3.3000000000e-01 0. 9.
#pdf    1   -2  1.842376e-01  2.881834e-01  1.273390e+02  2.406419e-01  3.634144e-01
</event>
</LesHouchesEvents>
