<LesHouchesEvents version="1.0">
<!--
  File written by Pythia8::LHAup on 15 Aug 2010 at 19:24:35
-->
<init>
  2212  -2212  9.800000e+02  9.800000e+02  0  0  0  0  3  1
  1.588370e+01  7.375591e-01  1.000000e+00   9999
</init>
<event>
     8  9999  1.000000e+00  1.493841e+02  7.861496e-03  1.175444e-01
        2    -1     0     0   101     0  0.0000000000e+00  0.0000000000e+00  3.8720650191e+02  3.8720650191e+02  0.0000000000e+00 0. 9.
       -1    -1     0     0     0   101  0.0000000000e+00  0.0000000000e+00 -1.0201284646e+02  1.0201284646e+02  0.0000000000e+00 0. 9.
       23     2     1     2     0     0  1.1364782413e+02  4.6333247592e+01 -1.7236955416e+01  1.5308368585e+02  8.9860472295e+01 0. 9.
       24     2     1     2     0     0 -1.1364782413e+02 -4.6333247592e+01  3.0243061086e+02  3.3613566252e+02  8.0376062794e+01 0. 9.
        5     1     3     0   102     0  1.0538606757e+02  6.7337176938e+01 -1.5180585684e+00  1.2516334582e+02  4.8000000000e+00 0. 9.
       -5     1     3     0     0   102  8.2617565601e+00 -2.1003929346e+01 -1.5718896847e+01  2.7920340032e+01  4.8000000000e+00 0. 9.
       -1     1     4     0     0   103 -1.3977691721e+01 -2.8345558021e+01  2.3496741605e+01  3.9383401217e+01  3.3000000000e-01 0. 9.
        2     1     4     0   103     0 -9.9670132407e+01 -1.7987689572e+01  2.7893386925e+02  2.9675226130e+02  3.3000000000e-01 0. 9.
#pdf    2   -1  3.951087e-01  1.040947e-01  1.467069e+02  2.183510e-01  3.316026e-01
</event>
<event>
     8  9999  1.000000e+00  7.440586e+01  7.799528e-03  1.306000e-01
        2    -1     0     0   101     0  0.0000000000e+00  0.0000000000e+00  2.9076783301e+02  2.9076783301e+02  0.0000000000e+00 0. 9.
       -1    -1     0     0     0   101  0.0000000000e+00  0.0000000000e+00 -3.0815134496e+01  3.0815134496e+01  0.0000000000e+00 0. 9.
       23     2     1     2     0     0 -2.5666200966e+00 -4.0950242531e+00  2.4149136798e+02  2.5814485665e+02  9.1089678020e+01 0. 9.
       24     2     1     2     0     0  2.5666200966e+00  4.0950242531e+00  1.8461330533e+01  6.3438110858e+01  6.0499722494e+01 0. 9.
        1     1     3     0   102     0 -4.1557434932e+01 -2.3304654790e+01  1.3241384293e+02  1.4072548466e+02  3.3000000000e-01 0. 9.
       -1     1     3     0     0   102  3.8990814835e+01  1.9209630537e+01  1.0907752505e+02  1.1741937199e+02  3.3000000000e-01 0. 9.
       -3     1     4     0     0   103  7.0694340720e+00  2.9011536286e+01  2.2969398775e+01  3.7676112006e+01  5.0000000000e-01 0. 9.
        4     1     4     0   103     0 -4.5028139754e+00 -2.4916512033e+01 -4.5080682420e+00  2.5761998852e+01  1.5000000000e+00 0. 9.
#pdf    2   -1  2.967019e-01  3.144401e-02  6.069245e+01  3.781392e-01  4.635516e-01
</event>
<event>
     8  9999  1.000000e+00  8.826950e+01  7.814629e-03  1.271384e-01
        2    -1     0     0   101     0  0.0000000000e+00  0.0000000000e+00  3.0306718756e+01  3.0306718756e+01  0.0000000000e+00 0. 9.
       -2    -1     0     0     0   101  0.0000000000e+00  0.0000000000e+00 -3.4950364547e+02  3.4950364547e+02  0.0000000000e+00 0. 9.
      -24     2     1     2     0     0  3.6968186039e+01 -1.4212477417e+01 -2.5794743451e+02  2.7280435927e+02  7.9477658341e+01 0. 9.
       24     2     1     2     0     0 -3.6968186039e+01  1.4212477417e+01 -6.1249492210e+01  1.0700600496e+02  7.8295232981e+01 0. 9.
        3     1     3     0   102     0 -1.7469941713e+01 -9.3259494868e+00 -1.5478663060e+02  1.5604910513e+02  5.0000000000e-01 0. 9.
       -4     1     3     0     0   102  5.4438127751e+01 -4.8865279304e+00 -1.0316080390e+02  1.1675525414e+02  1.5000000000e+00 0. 9.
       -1     1     4     0     0   103 -4.5967429646e+01  2.1571469455e+01 -7.4001177952e+01  8.9747513175e+01  3.3000000000e-01 0. 9.
        2     1     4     0   103     0  8.9992436075e+00 -7.3589920374e+00  1.2751685743e+01  1.7258491782e+01  3.3000000000e-01 0. 9.
#pdf    2   -2  3.092522e-02  3.566364e-01  8.774272e+01  6.011900e-01  2.821417e-01
</event>
<event>
     8  9999  1.000000e+00  1.048706e+02  7.829918e-03  1.238279e-01
        2    -1     0     0   101     0  0.0000000000e+00  0.0000000000e+00  1.2718306054e+02  1.2718306054e+02  0.0000000000e+00 0. 9.
       -2    -1     0     0     0   101  0.0000000000e+00  0.0000000000e+00 -9.3168424697e+01  9.3168424697e+01  0.0000000000e+00 0. 9.
      -24     2     1     2     0     0  3.6801725680e+01  6.7501677169e+01  4.6644285375e+01  1.2169687810e+02  8.1997544762e+01 0. 9.
       24     2     1     2     0     0 -3.6801725680e+01 -6.7501677169e+01 -1.2629649531e+01  9.8654607141e+01  6.0517600986e+01 0. 9.
        3     1     3     0   102     0  5.0094426932e+01  5.1772231383e+01  6.2727448003e+01  9.5523810042e+01  5.0000000000e-01 0. 9.
       -4     1     3     0     0   102 -1.3292701252e+01  1.5729445787e+01 -1.6083162628e+01  2.6173068056e+01  1.5000000000e+00 0. 9.
      -11     1     4     0     0     0 -1.7958347792e+01 -7.3879519409e+01 -1.9055541030e+00  7.6054695977e+01  5.1100000000e-04 0. 9.
       12     1     4     0     0     0 -1.8843377888e+01  6.3778422393e+00 -1.0724095428e+01  2.2599911164e+01  0.0000000000e+00 0. 9.
#pdf    2   -2  1.297786e-01  9.506982e-02  9.784285e+01  5.524027e-01  5.683987e-01
</event>
<event>
     8  9999  1.000000e+00  1.538921e+02  7.864161e-03  1.170453e-01
        2    -1     0     0   101     0  0.0000000000e+00  0.0000000000e+00  3.7549304526e+02  3.7549304526e+02  0.0000000000e+00 0. 9.
       -2    -1     0     0     0   101  0.0000000000e+00  0.0000000000e+00 -9.0447452769e+01  9.0447452769e+01  0.0000000000e+00 0. 9.
      -24     2     1     2     0     0  9.4376271749e+01 -8.8829696461e+01  1.5381784852e+01  1.5622314265e+02  8.5857296436e+01 0. 9.
       24     2     1     2     0     0 -9.4376271749e+01  8.8829696461e+01  2.6966380764e+02  3.0971735538e+02  8.0054203079e+01 0. 9.
        1     1     3     0   102     0  4.6056946842e+01 -6.0741945317e+01  4.9359512477e+01  9.0814627925e+01  3.3000000000e-01 0. 9.
       -2     1     3     0     0   102  4.8319324907e+01 -2.8087751144e+01 -3.3977727625e+01  6.5408514724e+01  3.3000000000e-01 0. 9.
       -3     1     4     0     0   103 -1.6773611308e+01 -5.6442611259e+00  5.3538391487e+00  1.8496629790e+01  5.0000000000e-01 0. 9.
        4     1     4     0   103     0 -7.7602660441e+01  9.4473957587e+01  2.6430996849e+02  2.9122072559e+02  1.5000000000e+00 0. 9.
#pdf    2   -2  3.831562e-01  9.229332e-02  1.523360e+02  2.315635e-01  5.639020e-01
</event>
<event>
     8  9999  1.000000e+00  8.084493e+01  7.806856e-03  1.288952e-01
        2    -1     0     0   101     0  0.0000000000e+00  0.0000000000e+00  1.4727168222e+02  1.4727168222e+02  0.0000000000e+00 0. 9.
       -2    -1     0     0     0   101  0.0000000000e+00  0.0000000000e+00 -8.1813099740e+01  8.1813099740e+01  0.0000000000e+00 0. 9.
      -24     2     1     2     0     0 -1.8946718552e+01  1.6297793264e+00 -4.4559372694e+01  9.3046403587e+01  7.9438411370e+01 0. 9.
       24     2     1     2     0     0  1.8946718552e+01 -1.6297793264e+00  1.1001795517e+02  1.3603837837e+02  7.7722941306e+01 0. 9.
       15     1     3     0     0     0 -2.1532301951e+01  2.4918628772e+01  9.3367393966e+00  3.4276967240e+01  1.7769900000e+00  2.534018e-02 9.
      -16     1     3     0     0     0  2.5855833992e+00 -2.3288849445e+01 -5.3896112090e+01  5.8769436346e+01  0.0000000000e+00 0. 9.
       -3     1     4     0     0   102 -1.1400310363e+01 -2.2230927851e+01  5.9523094684e+00  2.5687763964e+01  5.0000000000e-01 0. 9.
        4     1     4     0   102     0  3.0347028915e+01  2.0601148524e+01  1.0406564570e+02  1.1035061441e+02  1.5000000000e+00 0. 9.
#pdf    2   -2  1.502772e-01  8.348275e-02  8.001556e+01  5.429956e-01  5.736870e-01
</event>
<event>
     8  9999  1.000000e+00  9.832414e+01  7.824192e-03  1.250457e-01
        2    -1     0     0   101     0  0.0000000000e+00  0.0000000000e+00  6.4923166928e+01  6.4923166928e+01  0.0000000000e+00 0. 9.
       -2    -1     0     0     0   101  0.0000000000e+00  0.0000000000e+00 -1.4951522844e+02  1.4951522844e+02  0.0000000000e+00 0. 9.
      -24     2     1     2     0     0  3.6710143288e+01  4.1704141298e+01 -4.9165619205e+01  1.1002031765e+02  8.1242489884e+01 0. 9.
       24     2     1     2     0     0 -3.6710143288e+01 -4.1704141298e+01 -3.5426442306e+01  1.0441807772e+02  8.1001432814e+01 0. 9.
        3     1     3     0   102     0  6.4907493160e+00 -1.4188200671e+01 -4.3494977473e+01  4.6211448044e+01  5.0000000000e-01 0. 9.
       -4     1     3     0     0   102  3.0219393972e+01  5.5892341969e+01 -5.6706417315e+00  6.3808869606e+01  1.5000000000e+00 0. 9.
       -3     1     4     0     0   103 -4.6384520212e+01 -4.0924522451e+01 -5.4835916813e+01  8.2665397996e+01  5.0000000000e-01 0. 9.
        4     1     4     0   103     0  9.6743769244e+00 -7.7961884724e-01  1.9409474506e+01  2.1752679721e+01  1.5000000000e+00 0. 9.
#pdf    2   -2  6.624813e-02  1.525666e-01  9.822475e+01  5.762831e-01  5.360600e-01
</event>
<event>
     8  9999  1.000000e+00  1.765936e+02  7.876520e-03  1.147896e-01
        2    -1     0     0   101     0  0.0000000000e+00  0.0000000000e+00  1.8829512184e+02  1.8829512184e+02  0.0000000000e+00 0. 9.
       -2    -1     0     0     0   101  0.0000000000e+00  0.0000000000e+00 -4.6520770919e+02  4.6520770919e+02  0.0000000000e+00 0. 9.
      -24     2     1     2     0     0  7.5580790986e+01  1.3905378663e+02 -4.0070735543e+02  4.3794761945e+02  7.8634096581e+01 0. 9.
       24     2     1     2     0     0 -7.5580790986e+01 -1.3905378663e+02  1.2379476809e+02  2.1555521157e+02  7.8041611277e+01 0. 9.
        3     1     3     0   102     0  8.4015693907e+00  4.9073529651e+00  3.4589346411e-01  9.7487498501e+00  5.0000000000e-01 0. 9.
       -4     1     3     0     0   102  6.7179221595e+01  1.3414643366e+02 -4.0105324890e+02  4.2819886960e+02  1.5000000000e+00 0. 9.
       -1     1     4     0     0   103  2.0980423068e+00  1.2156450811e+00 -7.7693412106e+00  8.1456207456e+00  3.3000000000e-01 0. 9.
        2     1     4     0   103     0 -7.7678833293e+01 -1.4026943171e+02  1.3156410930e+02  2.0740959083e+02  3.3000000000e-01 0. 9.
#pdf    2   -2  1.921379e-01  4.747017e-01  1.764622e+02  4.804914e-01  1.322594e-01
</event>
<event>
     8  9999  1.000000e+00  9.147961e+01  7.817793e-03  1.264377e-01
        1    -1     0     0   101     0  0.0000000000e+00  0.0000000000e+00  5.4627006240e+02  5.4627006240e+02  0.0000000000e+00 0. 9.
       -1    -1     0     0     0   101  0.0000000000e+00  0.0000000000e+00 -1.5337823095e+01  1.5337823095e+01  0.0000000000e+00 0. 9.
       23     2     1     2     0     0  6.4888744779e+00 -8.6577802128e+00  2.7543296104e+02  2.9025259227e+02  9.0918582482e+01 0. 9.
       23     2     1     2     0     0 -6.4888744779e+00  8.6577802128e+00  2.5549927827e+02  2.7135529323e+02  9.0756549728e+01 0. 9.
        4     1     3     0   102     0 -3.4199283386e+01  2.0661583543e+01  1.4776856036e+02  1.5308262295e+02  1.5000000000e+00 0. 9.
       -4     1     3     0     0   102  4.0688157864e+01 -2.9319363756e+01  1.2766440068e+02  1.3716996932e+02  1.5000000000e+00 0. 9.
        4     1     4     0   103     0  3.5133155696e+01 -1.3853909911e+01  1.6439609774e+02  1.6868490271e+02  1.5000000000e+00 0. 9.
       -4     1     4     0     0   103 -4.1622030173e+01  2.2511690124e+01  9.1103180526e+01  1.0267039052e+02  1.5000000000e+00 0. 9.
#pdf    1   -1  5.574184e-01  1.565084e-02  9.139920e+01  1.919974e-02  5.596704e-01
</event>
<event>
     8  9999  1.000000e+00  8.862174e+01  7.814981e-03  1.270599e-01
        2    -1     0     0   101     0  0.0000000000e+00  0.0000000000e+00  3.2029575085e+02  3.2029575085e+02  0.0000000000e+00 0. 9.
       -1    -1     0     0     0   101  0.0000000000e+00  0.0000000000e+00 -5.1775075070e+01  5.1775075070e+01  0.0000000000e+00 0. 9.
       23     2     1     2     0     0  1.8995810785e+01 -1.7971889614e+01  2.7204309879e+02  2.8747409678e+02  8.9163215970e+01 0. 9.
       24     2     1     2     0     0 -1.8995810785e+01  1.7971889614e+01 -3.5224230038e+00  8.4596729136e+01  8.0376423614e+01 0. 9.
       16     1     3     0     0     0  3.4535770935e+01 -4.3729004084e+01  1.1766123123e+02  1.3018874992e+02  0.0000000000e+00 0. 9.
      -16     1     3     0     0     0 -1.5539960150e+01  2.5757114470e+01  1.5438186756e+02  1.5728534686e+02  0.0000000000e+00 0. 9.
       -1     1     4     0     0   102  1.2411639762e+01 -1.1116285378e+01 -2.9958983013e+01  3.4282213542e+01  3.3000000000e-01 0. 9.
        2     1     4     0   102     0 -3.1407450548e+01  2.9088174992e+01  2.6436560009e+01  5.0314515593e+01  3.3000000000e-01 0. 9.
#pdf    2   -1  3.268324e-01  5.283171e-02  8.452336e+01  3.237325e-01  4.123730e-01
</event>
<event>
     8  9999  1.000000e+00  1.023565e+02  7.827762e-03  1.242836e-01
        1    -1     0     0   101     0  0.0000000000e+00  0.0000000000e+00  2.3756666501e+02  2.3756666501e+02  0.0000000000e+00 0. 9.
       -1    -1     0     0     0   101  0.0000000000e+00  0.0000000000e+00 -5.1642665235e+01  5.1642665235e+01  0.0000000000e+00 0. 9.
      -24     2     1     2     0     0  6.5595309511e+01  1.4044770928e+01  1.4970375379e+02  1.8249790271e+02  7.9964181825e+01 0. 9.
       24     2     1     2     0     0 -6.5595309511e+01 -1.4044770928e+01  3.6220245983e+01  1.0671142753e+02  7.4668750668e+01 0. 9.
        3     1     3     0   102     0  5.8960825652e+01  1.8274747139e+01  1.5880088053e+02  1.7037697908e+02  5.0000000000e-01 0. 9.
       -4     1     3     0     0   102  6.6344838584e+00 -4.2299762105e+00 -9.0971267365e+00  1.2120923631e+01  1.5000000000e+00 0. 9.
      -13     1     4     0     0     0 -6.4990425726e+01  1.6225974036e+01  1.2253862517e+01  6.8097033563e+01  1.0566000000e-01  1.068645e+05 9.
       14     1     4     0     0     0 -6.0488378480e-01 -3.0270744964e+01  2.3966383466e+01  3.8614393968e+01  0.0000000000e+00 0. 9.
#pdf    1   -1  2.424150e-01  5.269660e-02  1.003764e+02  1.860364e-01  4.121210e-01
</event>
<event>
     8  9999  1.000000e+00  1.084413e+02  7.832896e-03  1.232046e-01
        2    -1     0     0   101     0  0.0000000000e+00  0.0000000000e+00  1.7625760076e+02  1.7625760076e+02  0.0000000000e+00 0. 9.
       -2    -1     0     0     0   101  0.0000000000e+00  0.0000000000e+00 -1.1614019159e+02  1.1614019159e+02  0.0000000000e+00 0. 9.
      -24     2     1     2     0     0 -6.9892986267e+01 -2.1559005747e+01 -6.5232196629e+01  1.2697003930e+02  8.0723795413e+01 0. 9.
       24     2     1     2     0     0  6.9892986267e+01  2.1559005747e+01  1.2534960579e+02  1.6542775305e+02  7.9397717521e+01 0. 9.
        1     1     3     0   102     0 -3.3651784165e+01 -4.9830715109e+01 -2.2476915791e+01  6.4193951344e+01  3.3000000000e-01 0. 9.
       -2     1     3     0     0   102 -3.6241202102e+01  2.8271709362e+01 -4.2755280838e+01  6.2776087960e+01  3.3000000000e-01 0. 9.
      -15     1     4     0     0     0  5.0348981961e+01  4.5289550154e+01  5.0455085739e+01  8.4469146486e+01  1.7769900000e+00  6.163097e-02 9.
       16     1     4     0     0     0  1.9544004306e+01 -2.3730544407e+01  7.4894520053e+01  8.0958606560e+01  0.0000000000e+00 0. 9.
#pdf    2   -2  1.798547e-01  1.185104e-01  1.079528e+02  5.081149e-01  5.569028e-01
</event>
<event>
     8  9999  1.000000e+00  1.061258e+02  7.830976e-03  1.236057e-01
        1    -1     0     0   101     0  0.0000000000e+00  0.0000000000e+00  1.2226242572e+02  1.2226242572e+02  0.0000000000e+00 0. 9.
       -2    -1     0     0     0   101  0.0000000000e+00  0.0000000000e+00 -2.5813624278e+02  2.5813624278e+02  0.0000000000e+00 0. 9.
       23     2     1     2     0     0  5.1056449647e+01  3.8193944874e+01 -2.2086833897e+02  2.4585106825e+02  8.7145775136e+01 0. 9.
      -24     2     1     2     0     0 -5.1056449647e+01 -3.8193944874e+01  8.4994521910e+01  1.3454760026e+02  8.2543621826e+01 0. 9.
        2     1     3     0   102     0  4.4709262981e+01  2.9658428766e+01 -4.6039246595e+01  7.0698385556e+01  3.3000000000e-01 0. 9.
       -2     1     3     0     0   102  6.3471866660e+00  8.5355161080e+00 -1.7482909238e+02  1.7515268269e+02  3.3000000000e-01 0. 9.
       15     1     4     0     0     0 -3.3584314858e+01  1.6063616957e+01  6.9656459932e+00  3.7916011286e+01  1.7769900000e+00  3.620351e-02 9.
      -16     1     4     0     0     0 -1.7472134788e+01 -5.4257561831e+01  7.8028875917e+01  9.6631588970e+01  0.0000000000e+00 0. 9.
#pdf    1   -2  1.247576e-01  2.634043e-01  1.043024e+02  3.111255e-01  4.047831e-01
</event>
<event>
     8  9999  1.000000e+00  8.846258e+01  7.814822e-03  1.270953e-01
       -4    -1     0     0     0   101  0.0000000000e+00  0.0000000000e+00  2.4275394086e+02  2.4275394086e+02  0.0000000000e+00 0. 9.
        4    -1     0     0   101     0  0.0000000000e+00  0.0000000000e+00 -3.8174898837e+01  3.8174898837e+01  0.0000000000e+00 0. 9.
      -24     2     1     2     0     0  3.7414620344e+01 -3.2900737512e+00  1.5691493913e+02  1.7975395714e+02  7.9237040490e+01 0. 9.
       24     2     1     2     0     0 -3.7414620344e+01  3.2900737512e+00  4.7664102896e+01  1.0117488256e+02  8.0955615956e+01 0. 9.
        1     1     3     0   102     0 -1.2574812001e+01 -2.7393076582e+01  7.4783009411e+01  8.0629485538e+01  3.3000000000e-01 0. 9.
       -2     1     3     0     0   102  4.9989432345e+01  2.4103002831e+01  8.2131929718e+01  9.9124471604e+01  3.3000000000e-01 0. 9.
      -13     1     4     0     0     0  5.2955994783e+00  9.4011484368e+00  5.6171832287e+01  5.7198871250e+01  1.0566000000e-01  7.907150e+05 9.
       14     1     4     0     0     0 -4.2710219822e+01 -6.1110746856e+00 -8.5077293917e+00  4.3976011307e+01  0.0000000000e+00 0. 9.
#pdf   -4    4  2.477081e-01  3.895398e-02  8.768801e+01  4.171465e-03  9.555848e-02
</event>
<event>
     8  9999  1.000000e+00  9.221916e+01  7.818507e-03  1.262808e-01
        2    -1     0     0   101     0  0.0000000000e+00  0.0000000000e+00  9.8421469812e+01  9.8421469812e+01  0.0000000000e+00 0. 9.
       -2    -1     0     0     0   101  0.0000000000e+00  0.0000000000e+00 -9.4187357201e+01  9.4187357201e+01  0.0000000000e+00 0. 9.
      -24     2     1     2     0     0 -3.8908993635e+01  2.4258966134e+01 -2.5545951338e+01  9.6157636962e+01  8.0568531653e+01 0. 9.
       24     2     1     2     0     0  3.8908993635e+01 -2.4258966134e+01  2.9780063949e+01  9.6451190052e+01  7.9457992864e+01 0. 9.
       13     1     3     0     0     0 -5.5816187137e+01 -4.8200957268e+00 -3.9039671272e+00  5.6159880633e+01  1.0566000000e-01  9.055257e+05 9.
      -14     1     3     0     0     0  1.6907193502e+01  2.9079061860e+01 -2.1641984210e+01  3.9997756329e+01  0.0000000000e+00 0. 9.
       -1     1     4     0     0   102  6.1255874716e+01 -1.4725120366e+01  7.4317430536e+00  6.3438561316e+01  3.3000000000e-01 0. 9.
        2     1     4     0   102     0 -2.2346881081e+01 -9.5338457674e+00  2.2348320895e+01  3.3012628735e+01  3.3000000000e-01 0. 9.
#pdf    2   -2  1.004301e-01  9.610955e-02  9.173865e+01  5.674696e-01  5.688957e-01
</event>
<event>
     8  9999  1.000000e+00  7.956593e+01  7.805447e-03  1.292193e-01
        2    -1     0     0   101     0  0.0000000000e+00  0.0000000000e+00  1.4389881185e+02  1.4389881185e+02  0.0000000000e+00 0. 9.
       -2    -1     0     0     0   101  0.0000000000e+00  0.0000000000e+00 -5.4731934338e+01  5.4731934338e+01  0.0000000000e+00 0. 9.
      -24     2     1     2     0     0 -7.6752881766e-01 -1.1052201647e+01  7.5751686930e-01  7.9928665086e+01  7.9153505348e+01 0. 9.
       24     2     1     2     0     0  7.6752881766e-01  1.1052201647e+01  8.8409360646e+01  1.1870208110e+02  7.8429769520e+01 0. 9.
       15     1     3     0     0     0  1.6310454924e+01  2.7690196883e+01 -1.3989103272e+01  3.5094595696e+01  1.7769900000e+00  1.002509e-01 9.
      -16     1     3     0     0     0 -1.7077983742e+01 -3.8742398530e+01  1.4746620141e+01  4.4834069391e+01  0.0000000000e+00 0. 9.
       -3     1     4     0     0   102  1.1575447520e+01 -1.0790388568e+01 -9.0459705886e+00  1.8234666287e+01  5.0000000000e-01 0. 9.
        4     1     4     0   102     0 -1.0807918702e+01  2.1842590215e+01  9.7455331234e+01  1.0046741482e+02  1.5000000000e+00 0. 9.
#pdf    2   -2  1.468355e-01  5.584891e-02  7.920839e+01  5.457999e-01  5.796487e-01
</event>
<event>
     8  9999  1.000000e+00  1.272437e+02  7.847147e-03  1.203126e-01
        1    -1     0     0   101     0  0.0000000000e+00  0.0000000000e+00  3.6142361112e+02  3.6142361112e+02  0.0000000000e+00 0. 9.
       -2    -1     0     0     0   101  0.0000000000e+00  0.0000000000e+00 -9.3291274977e+01  9.3291274977e+01  0.0000000000e+00 0. 9.
       23     2     1     2     0     0  6.0775733533e+01 -7.0480218583e+01 -2.7851948346e+01  1.3398191805e+02  9.2272814745e+01 0. 9.
      -24     2     1     2     0     0 -6.0775733533e+01  7.0480218583e+01  2.9598428449e+02  3.2073296805e+02  8.1251394621e+01 0. 9.
       14     1     3     0     0     0 -3.4843755675e+00 -2.5964599426e-01  2.4908236577e+01  2.5152108033e+01  0.0000000000e+00 0. 9.
      -14     1     3     0     0     0  6.4260109101e+01 -7.0220572588e+01 -5.2760184922e+01  1.0882981002e+02  0.0000000000e+00 0. 9.
        3     1     4     0   102     0 -3.9801613085e+01  6.1444911661e+01  2.8692591516e+02  2.9611885513e+02  5.0000000000e-01 0. 9.
       -4     1     4     0     0   102 -2.0974120448e+01  9.0353069218e+00  9.0583693331e+00  2.4614112918e+01  1.5000000000e+00 0. 9.
#pdf    1   -2  3.687996e-01  9.519518e-02  1.235433e+02  8.642314e-02  5.653596e-01
</event>
<event>
     8  9999  1.000000e+00  9.612409e+01  7.822184e-03  1.254790e-01
        1    -1     0     0   101     0  0.0000000000e+00  0.0000000000e+00  3.6443500772e+02  3.6443500772e+02  0.0000000000e+00 0. 9.
       -1    -1     0     0     0   101  0.0000000000e+00  0.0000000000e+00 -2.5681290529e+01  2.5681290529e+01  0.0000000000e+00 0. 9.
      -24     2     1     2     0     0 -4.3483207031e+01  2.9034762087e+01  1.9128687345e+02  2.1405120458e+02  8.0581905698e+01 0. 9.
       24     2     1     2     0     0  4.3483207031e+01 -2.9034762087e+01  1.4746684374e+02  1.7606509366e+02  8.0738098200e+01 0. 9.
        1     1     3     0   102     0  1.7374583219e+01  2.3402583271e+01  3.1219138406e+01  4.2711831483e+01  3.3000000000e-01 0. 9.
       -2     1     3     0     0   102 -6.0857790250e+01  5.6321788163e+00  1.6006773504e+02  1.7133937310e+02  3.3000000000e-01 0. 9.
       -1     1     4     0     0   103 -1.5632215912e+01  2.1937563218e+00  7.8266648922e+01  7.9843321415e+01  3.3000000000e-01 0. 9.
        2     1     4     0   103     0  5.9115422943e+01 -3.1228518409e+01  6.9200194816e+01  9.6221772247e+01  3.3000000000e-01 0. 9.
#pdf    1   -1  3.718725e-01  2.620540e-02  9.605858e+01  8.764863e-02  4.890339e-01
</event>
<event>
     8  9999  1.000000e+00  1.167703e+02  7.839485e-03  1.218491e-01
        2    -1     0     0   101     0  0.0000000000e+00  0.0000000000e+00  3.2486974927e+02  3.2486974927e+02  0.0000000000e+00 0. 9.
       -1    -1     0     0     0   101  0.0000000000e+00  0.0000000000e+00 -7.3323531061e+01  7.3323531061e+01  0.0000000000e+00 0. 9.
       23     2     1     2     0     0  1.4963529367e+01 -7.7066837421e+01 -1.4780580278e+00  1.2133115930e+02  9.2497896844e+01 0. 9.
       24     2     1     2     0     0 -1.4963529367e+01  7.7066837421e+01  2.5302427624e+02  2.7686212103e+02  8.0424778861e+01 0. 9.
       12     1     3     0     0     0  2.0403238982e+01 -5.9036983579e+00  3.5181356803e+01  4.1095908334e+01  0.0000000000e+00 0. 9.
      -12     1     3     0     0     0 -5.4397096150e+00 -7.1163139063e+01 -3.6659414831e+01  8.0235250967e+01  0.0000000000e+00 0. 9.
       -1     1     4     0     0   102 -3.3926585161e+01  1.2124309032e+01  4.2435969544e+01  5.5668056023e+01  3.3000000000e-01 0. 9.
        4     1     4     0   102     0  1.8963055795e+01  6.4942528389e+01  2.1058830669e+02  2.2119406501e+02  1.5000000000e+00 0. 9.
#pdf    2   -1  3.314997e-01  7.481993e-02  1.123893e+02  3.075810e-01  3.744335e-01
</event>
<event>
     8  9999  1.000000e+00  8.405349e+01  7.810297e-03  1.281110e-01
        1    -1     0     0   101     0  0.0000000000e+00  0.0000000000e+00  2.4515837178e+02  2.4515837178e+02  0.0000000000e+00 0. 9.
       -1    -1     0     0     0   101  0.0000000000e+00  0.0000000000e+00 -8.2889501158e+01  8.2889501158e+01  0.0000000000e+00 0. 9.
      -24     2     1     2     0     0 -1.3161109786e+01 -2.0379513881e+01  2.1374273875e+02  2.2982065154e+02  8.0889023427e+01 0. 9.
       24     2     1     2     0     0  1.3161109786e+01  2.0379513881e+01 -5.1473868125e+01  9.8227221397e+01  8.0065526457e+01 0. 9.
        1     1     3     0   102     0 -2.5293877492e+00  2.4008539760e+01  1.4695671430e+02  1.4892680269e+02  3.3000000000e-01 0. 9.
       -2     1     3     0     0   102 -1.0631722037e+01 -4.4388053641e+01  6.6786024453e+01  8.0893848850e+01  3.3000000000e-01 0. 9.
       -1     1     4     0     0   103 -7.9300439710e+00  3.1757511913e+01  8.3488372139e+00  3.3782201573e+01  3.3000000000e-01 0. 9.
        2     1     4     0   103     0  2.1091153757e+01 -1.1377998033e+01 -5.9822705339e+01  6.4445019824e+01  3.3000000000e-01 0. 9.
#pdf    1   -1  2.501616e-01  8.458112e-02  8.366019e+01  1.820459e-01  3.637420e-01
</event>
<event>
     8  9999  1.000000e+00  8.586770e+01  7.812187e-03  1.276848e-01
        2    -1     0     0   101     0  0.0000000000e+00  0.0000000000e+00  1.4837761081e+02  1.4837761081e+02  0.0000000000e+00 0. 9.
       -2    -1     0     0     0   101  0.0000000000e+00  0.0000000000e+00 -5.0211378229e+02  5.0211378229e+02  0.0000000000e+00 0. 9.
      -24     2     1     2     0     0 -2.6404790138e+01  1.2283720305e+01 -4.8565971101e+02  4.9324348998e+02  8.1090583774e+01 0. 9.
       24     2     1     2     0     0  2.6404790138e+01 -1.2283720305e+01  1.3192353953e+02  1.5724790312e+02  8.0467260575e+01 0. 9.
        1     1     3     0   102     0 -2.1371738138e+01 -2.8347651059e+01 -1.1568549147e+02  1.2101067039e+02  3.3000000000e-01 0. 9.
       -2     1     3     0     0   102 -5.0330520004e+00  4.0631371364e+01 -3.6997421954e+02  3.7223281959e+02  3.3000000000e-01 0. 9.
      -11     1     4     0     0     0  5.4797043313e+00 -3.9523545345e+01  3.0670333087e+01  5.0327001979e+01  5.1100000000e-04 0. 9.
       12     1     4     0     0     0  2.0925085807e+01  2.7239825040e+01  1.0125320645e+02  1.0692090114e+02  0.0000000000e+00 0. 9.
#pdf    2   -2  1.514057e-01  5.123610e-01  8.557501e+01  5.404420e-01  1.149261e-01
</event>
<event>
     8  9999  1.000000e+00  8.176497e+01  7.807856e-03  1.286662e-01
        2    -1     0     0   101     0  0.0000000000e+00  0.0000000000e+00  5.0233774825e+01  5.0233774825e+01  0.0000000000e+00 0. 9.
       -2    -1     0     0     0   101  0.0000000000e+00  0.0000000000e+00 -3.2077181561e+02  3.2077181561e+02  0.0000000000e+00 0. 9.
      -24     2     1     2     0     0  2.6948571359e+00  7.3050424382e+00 -2.7719650952e+02  2.8901775722e+02  8.1441593787e+01 0. 9.
       24     2     1     2     0     0 -2.6948571359e+00 -7.3050424382e+00  6.6584687344e+00  8.1987833216e+01  8.1345213071e+01 0. 9.
        1     1     3     0   102     0 -3.7696020797e+01  1.4537728669e+01 -1.5134950371e+02  1.5664966234e+02  3.3000000000e-01 0. 9.
       -2     1     3     0     0   102  4.0390877933e+01 -7.2326862305e+00 -1.2584700582e+02  1.3236809488e+02  3.3000000000e-01 0. 9.
       -3     1     4     0     0   103  3.7366735988e+01  5.4815887834e+00 -5.5443333218e+00  3.8174735178e+01  5.0000000000e-01 0. 9.
        4     1     4     0   103     0 -4.0061593123e+01 -1.2786631222e+01  1.2202802056e+01  4.3813098037e+01  1.5000000000e+00 0. 9.
#pdf    2   -2  5.125895e-02  3.273182e-01  8.171701e+01  5.813913e-01  3.242633e-01
</event>
<event>
     8  9999  1.000000e+00  1.178091e+02  7.840274e-03  1.216888e-01
        1    -1     0     0   101     0  0.0000000000e+00  0.0000000000e+00  1.3701222744e+02  1.3701222744e+02  0.0000000000e+00 0. 9.
       -1    -1     0     0     0   101  0.0000000000e+00  0.0000000000e+00 -1.1969463719e+02  1.1969463719e+02  0.0000000000e+00 0. 9.
      -24     2     1     2     0     0 -2.8827665127e+00 -8.0820986802e+01  5.9058458389e+01  1.3483540500e+02  9.0290324413e+01 0. 9.
       24     2     1     2     0     0  2.8827665127e+00  8.0820986802e+01 -4.1740868139e+01  1.2187145963e+02  8.1055600361e+01 0. 9.
        1     1     3     0   102     0  6.1042506538e-01  1.7287990825e+01 -4.5095863515e+00  1.7879947275e+01  3.3000000000e-01 0. 9.
       -2     1     3     0     0   102 -3.4931915781e+00 -9.8108977627e+01  6.3568044740e+01  1.1695545772e+02  3.3000000000e-01 0. 9.
       -3     1     4     0     0   103  2.8406062879e+01 -1.3494369239e+00 -1.0076397726e+01  3.0174644644e+01  5.0000000000e-01 0. 9.
        4     1     4     0   103     0 -2.5523296366e+01  8.2170423726e+01 -3.1664470413e+01  9.1696814990e+01  1.5000000000e+00 0. 9.
#pdf    1   -1  1.398084e-01  1.221374e-01  1.145004e+02  2.920544e-01  3.128170e-01
</event>
<event>
     8  9999  1.000000e+00  9.531872e+01  7.821438e-03  1.256408e-01
       -1    -1     0     0     0   101  0.0000000000e+00  0.0000000000e+00  2.0370380315e+02  2.0370380315e+02  0.0000000000e+00 0. 9.
        2    -1     0     0   101     0  0.0000000000e+00  0.0000000000e+00 -8.9723071982e+01  8.9723071982e+01  0.0000000000e+00 0. 9.
       23     2     1     2     0     0  4.4236840142e+01  8.4091839730e+00  1.6234131031e+02  1.9099455503e+02  8.9981145884e+01 0. 9.
       24     2     1     2     0     0 -4.4236840142e+01 -8.4091839730e+00 -4.8360579148e+01  1.0243232010e+02  7.8268909443e+01 0. 9.
       14     1     3     0     0     0  1.9905606554e+01 -1.5315831476e+00 -5.8169333638e+00  2.0794605862e+01  0.0000000000e+00 0. 9.
      -14     1     3     0     0     0  2.4331233589e+01  9.9407671206e+00  1.6815824368e+02  1.7019994916e+02  0.0000000000e+00 0. 9.
       -3     1     4     0     0   102  1.6040840781e+00 -6.5409912761e+00  1.9425575545e+01  2.0566006852e+01  5.0000000000e-01 0. 9.
        4     1     4     0   102     0 -4.5840924220e+01 -1.8681926969e+00 -6.7786154693e+01  8.1866313251e+01  1.5000000000e+00 0. 9.
#pdf   -1    2  2.078610e-01  9.155416e-02  9.029748e+01  3.911998e-02  9.432843e-02
</event>
<event>
     8  9999  1.000000e+00  1.137989e+02  7.837188e-03  1.223179e-01
        2    -1     0     0   101     0  0.0000000000e+00  0.0000000000e+00  1.0922547885e+02  1.0922547885e+02  0.0000000000e+00 0. 9.
       -2    -1     0     0     0   101  0.0000000000e+00  0.0000000000e+00 -1.6697774922e+02  1.6697774922e+02  0.0000000000e+00 0. 9.
       23     2     1     2     0     0  3.2526840867e+01 -5.8676158401e+01  4.5439047381e+01  1.2277707462e+02  9.2242160010e+01 0. 9.
       23     2     1     2     0     0 -3.2526840867e+01  5.8676158401e+01 -1.0319131775e+02  1.5342615346e+02  9.1598305464e+01 0. 9.
       11     1     3     0     0     0 -5.6087403298e-01 -6.1522374672e+01  6.0521454077e+01  8.6302743692e+01  5.1100000000e-04 0. 9.
      -11     1     3     0     0     0  3.3087714900e+01  2.8462162711e+00 -1.5082406697e+01  3.6474330925e+01  5.1100000000e-04 0. 9.
       14     1     4     0     0     0  1.5585524651e+01  4.4681056970e+01 -1.1130457836e+01  4.8612678616e+01  0.0000000000e+00 0. 9.
      -14     1     4     0     0     0 -4.8112365518e+01  1.3995101431e+01 -9.2060859915e+01  1.0481347484e+02  0.0000000000e+00 0. 9.
#pdf    2   -2  1.114546e-01  1.703855e-01  1.135391e+02  5.595920e-01  5.162589e-01
</event>
<event>
     8  9999  1.000000e+00  1.338147e+02  7.851645e-03  1.194298e-01
       -1    -1     0     0     0   101  0.0000000000e+00  0.0000000000e+00  1.3960080384e+02  1.3960080384e+02  0.0000000000e+00 0. 9.
        1    -1     0     0   101     0  0.0000000000e+00  0.0000000000e+00 -1.5841855477e+02  1.5841855477e+02  0.0000000000e+00 0. 9.
      -24     2     1     2     0     0  1.0107608278e+02  3.2162601653e+01 -7.4462861972e+01  1.5401299126e+02  8.3213437669e+01 0. 9.
       24     2     1     2     0     0 -1.0107608278e+02 -3.2162601653e+01  5.5645111040e+01  1.4400636735e+02  7.9941528631e+01 0. 9.
        1     1     3     0   102     0  4.4299192127e+01  5.7272590558e+01 -3.4731812619e+01  8.0305515129e+01  3.3000000000e-01 0. 9.
       -2     1     3     0     0   102  5.6776890651e+01 -2.5109988905e+01 -3.9731049353e+01  7.3707476130e+01  3.3000000000e-01 0. 9.
       -1     1     4     0     0   103 -1.0314523479e+02 -1.7102812319e+01  6.7737715772e+01  1.2457910213e+02  3.3000000000e-01 0. 9.
        2     1     4     0   103     0  2.0691520110e+00 -1.5059789335e+01 -1.2092604732e+01  1.9427265223e+01  3.3000000000e-01 0. 9.
#pdf   -1    1  1.424498e-01  1.616516e-01  1.328211e+02  7.635083e-02  6.229598e-02
</event>
<event>
     8  9999  1.000000e+00  1.007082e+02  7.826320e-03  1.245903e-01
        2    -1     0     0   101     0  0.0000000000e+00  0.0000000000e+00  2.0621741866e+02  2.0621741866e+02  0.0000000000e+00 0. 9.
       -1    -1     0     0     0   101  0.0000000000e+00  0.0000000000e+00 -1.0086587467e+02  1.0086587467e+02  0.0000000000e+00 0. 9.
       23     2     1     2     0     0 -3.6137255581e+01  4.1204854579e+01 -5.6213437596e+01  1.1854728398e+02  8.8824358657e+01 0. 9.
       24     2     1     2     0     0  3.6137255581e+01 -4.1204854579e+01  1.6156498159e+02  1.8853600935e+02  8.0242396918e+01 0. 9.
        2     1     3     0   102     0  1.5501609617e+01 -1.8577876657e+01 -5.9640749172e+00  2.4922208799e+01  3.3000000000e-01 0. 9.
       -2     1     3     0     0   102 -5.1638865198e+01  5.9782731236e+01 -5.0249362679e+01  9.3625075181e+01  3.3000000000e-01 0. 9.
       -3     1     4     0     0   103  1.2033161739e+01 -3.0176010830e+01  9.0501051605e+00  3.3727481590e+01  5.0000000000e-01 0. 9.
        4     1     4     0   103     0  2.4104093842e+01 -1.1028843749e+01  1.5251487643e+02  1.5480852776e+02  1.5000000000e+00 0. 9.
#pdf    2   -1  2.104259e-01  1.029244e-01  9.717296e+01  4.767727e-01  3.385229e-01
</event>
<event>
     8  9999  1.000000e+00  1.037616e+02  7.828973e-03  1.240271e-01
        2    -1     0     0   101     0  0.0000000000e+00  0.0000000000e+00  1.5490278834e+02  1.5490278834e+02  0.0000000000e+00 0. 9.
       -1    -1     0     0     0   101  0.0000000000e+00  0.0000000000e+00 -8.6105276518e+01  8.6105276518e+01  0.0000000000e+00 0. 9.
       23     2     1     2     0     0  3.1786219730e+01  4.7528436477e+01 -1.7031114581e+01  1.0976330433e+02  9.2133642468e+01 0. 9.
       24     2     1     2     0     0 -3.1786219730e+01 -4.7528436477e+01  8.5828626402e+01  1.3124476053e+02  8.1174614369e+01 0. 9.
        2     1     3     0   102     0 -2.4304501122e+01  3.5030234648e+00  1.7872829413e+01  3.0373127587e+01  3.3000000000e-01 0. 9.
       -2     1     3     0     0   102  5.6090720853e+01  4.4025413012e+01 -3.4903943994e+01  7.9390176741e+01  3.3000000000e-01 0. 9.
       -1     1     4     0     0   103  2.5518214966e+01 -2.5546749161e+01  4.4234673998e+01  5.7101934919e+01  3.3000000000e-01 0. 9.
        2     1     4     0   103     0 -5.7304434696e+01 -2.1981687315e+01  4.1593952403e+01  7.4142825611e+01  3.3000000000e-01 0. 9.
#pdf    2   -1  1.580641e-01  8.786253e-02  9.929065e+01  5.311795e-01  3.575129e-01
</event>
<event>
     8  9999  1.000000e+00  1.224176e+02  7.843696e-03  1.209994e-01
        1    -1     0     0   101     0  0.0000000000e+00  0.0000000000e+00  1.4901456434e+02  1.4901456434e+02  0.0000000000e+00 0. 9.
       -1    -1     0     0     0   101  0.0000000000e+00  0.0000000000e+00 -3.7204791691e+02  3.7204791691e+02  0.0000000000e+00 0. 9.
      -24     2     1     2     0     0 -5.6991747630e+01 -7.1735024191e+01  1.1139327929e+02  1.6441218394e+02  7.8923574179e+01 0. 9.
       24     2     1     2     0     0  5.6991747630e+01  7.1735024191e+01 -3.3442663186e+02  3.5665029731e+02  8.3452318612e+01 0. 9.
        1     1     3     0   102     0 -6.7860981567e+01 -5.4378166116e+01  1.1441185473e+02  1.4370900867e+02  3.3000000000e-01 0. 9.
       -2     1     3     0     0   102  1.0869233937e+01 -1.7356858075e+01 -3.0185754340e+00  2.0703175270e+01  3.3000000000e-01 0. 9.
       -1     1     4     0     0   103  1.1348528541e+01  4.7575180808e+01 -2.6836106197e+02  2.7278188248e+02  3.3000000000e-01 0. 9.
        4     1     4     0   103     0  4.5643219089e+01  2.4159843383e+01 -6.6065569891e+01  8.3868414830e+01  1.5000000000e+00 0. 9.
#pdf    1   -1  1.520557e-01  3.796407e-01  1.209252e+02  2.771175e-01  8.052654e-02
</event>
<event>
     8  9999  1.000000e+00  9.463531e+01  7.820800e-03  1.257796e-01
        1    -1     0     0   101     0  0.0000000000e+00  0.0000000000e+00  1.2132290854e+02  1.2132290854e+02  0.0000000000e+00 0. 9.
       -2    -1     0     0     0   101  0.0000000000e+00  0.0000000000e+00 -9.4932422279e+01  9.4932422279e+01  0.0000000000e+00 0. 9.
       23     2     1     2     0     0  2.1412359637e+01 -4.5147866725e+01  6.4125137328e+01  1.2267053336e+02  9.1865159353e+01 0. 9.
      -24     2     1     2     0     0 -2.1412359637e+01  4.5147866725e+01 -3.7734651065e+01  9.3584797459e+01  6.9551358070e+01 0. 9.
       15     1     3     0     0     0  1.2069759396e+01 -6.5763881534e+01  7.2342944786e+01  9.8525258488e+01  1.7769900000e+00  2.416820e-02 9.
      -15     1     3     0     0     0  9.3426002410e+00  2.0616014809e+01 -8.2178074578e+00  2.4145274874e+01  1.7769900000e+00  6.339317e-02 9.
        1     1     4     0   102     0  5.0028652655e+00  6.7053302628e+00  1.8628770582e+01  2.0423763321e+01  3.3000000000e-01 0. 9.
       -2     1     4     0     0   102 -2.6415224902e+01  3.8442536462e+01 -5.6363421647e+01  7.3161034137e+01  3.3000000000e-01 0. 9.
#pdf    1   -2  1.237989e-01  9.686982e-02  8.564000e+01  3.153214e-01  5.695617e-01
</event>
<event>
     8  9999  1.000000e+00  9.040057e+01  7.816742e-03  1.266696e-01
        2    -1     0     0   101     0  0.0000000000e+00  0.0000000000e+00  2.2486661163e+02  2.2486661163e+02  0.0000000000e+00 0. 9.
       -1    -1     0     0     0   101  0.0000000000e+00  0.0000000000e+00 -6.0473769715e+01  6.0473769715e+01  0.0000000000e+00 0. 9.
       23     2     1     2     0     0 -1.8269737983e+01  2.6304402784e+01 -4.1462746738e+00  9.6806513104e+01  9.1261188102e+01 0. 9.
       24     2     1     2     0     0  1.8269737983e+01 -2.6304402784e+01  1.6853911659e+02  1.8853386824e+02  7.8191308478e+01 0. 9.
       16     1     3     0     0     0 -1.6003329949e+01  1.6007692270e+00  4.1691641024e+01  4.4686261456e+01  0.0000000000e+00 0. 9.
      -16     1     3     0     0     0 -2.2664080343e+00  2.4703633557e+01 -4.5837915698e+01  5.2120251648e+01  0.0000000000e+00 0. 9.
       -1     1     4     0     0   102 -1.0561180043e+01  2.3951660353e+01  6.0984842651e+01  6.6366260183e+01  3.3000000000e-01 0. 9.
        2     1     4     0   102     0  2.8830918026e+01 -5.0256063137e+01  1.0755427394e+02  1.2216760806e+02  3.3000000000e-01 0. 9.
#pdf    2   -1  2.294557e-01  6.170793e-02  8.449607e+01  4.576468e-01  3.968248e-01
</event>
<event>
     8  9999  1.000000e+00  9.992488e+01  7.825626e-03  1.247384e-01
        2    -1     0     0   101     0  0.0000000000e+00  0.0000000000e+00  2.4773113620e+01  2.4773113620e+01  0.0000000000e+00 0. 9.
       -2    -1     0     0     0   101  0.0000000000e+00  0.0000000000e+00 -4.0368987800e+02  4.0368987800e+02  0.0000000000e+00 0. 9.
      -24     2     1     2     0     0 -4.0101743686e+01 -4.4790770451e+01 -1.9806476295e+02  2.2187380659e+02  7.9899766998e+01 0. 9.
       24     2     1     2     0     0  4.0101743686e+01  4.4790770451e+01 -1.8085200144e+02  2.0658918503e+02  7.9732565390e+01 0. 9.
       15     1     3     0     0     0 -1.0483699048e+01 -5.8015068980e+00  4.9149440740e+00  1.3072099936e+01  1.7769900000e+00  8.397874e-03 9.
      -16     1     3     0     0     0 -2.9618044638e+01 -3.8989263553e+01 -2.0297970702e+02  2.0880170666e+02  0.0000000000e+00 0. 9.
      -15     1     4     0     0     0  3.9262529133e+01 -1.1840337247e+01 -5.5445703628e+01  6.8986401010e+01  1.7769900000e+00  5.906351e-03 9.
       16     1     4     0     0     0  8.3921455251e-01  5.6631107698e+01 -1.2540629781e+02  1.3760278402e+02  0.0000000000e+00 0. 9.
#pdf    2   -2  2.527869e-02  4.119284e-01  9.985812e+01  6.168664e-01  2.095460e-01
</event>
<event>
     8  9999  1.000000e+00  8.347751e+01  7.809689e-03  1.282489e-01
        1    -1     0     0   101     0  0.0000000000e+00  0.0000000000e+00  1.0671531899e+02  1.0671531899e+02  0.0000000000e+00 0. 9.
       -2    -1     0     0     0   101  0.0000000000e+00  0.0000000000e+00 -6.8072077139e+01  6.8072077139e+01  0.0000000000e+00 0. 9.
       23     2     1     2     0     0 -6.2768882863e+00 -5.9079351028e+00  3.0167989457e+01  1.0494021758e+02  1.0014009513e+02 0. 9.
      -24     2     1     2     0     0  6.2768882863e+00  5.9079351028e+00  8.4752523928e+00  6.9847178552e+01  6.8793135012e+01 0. 9.
       12     1     3     0     0     0  2.6314894642e+01  3.6551568893e+01  2.4072230311e+01  5.1068220457e+01  0.0000000000e+00 0. 9.
      -12     1     3     0     0     0 -3.2591782928e+01 -4.2459503995e+01  6.0957591457e+00  5.3871997119e+01  0.0000000000e+00 0. 9.
        3     1     4     0   102     0  1.4910088317e+01 -2.8618927612e+01 -3.0250071612e+00  3.2415342349e+01  5.0000000000e-01 0. 9.
       -4     1     4     0     0   102 -8.6332000302e+00  3.4526862715e+01  1.1500259554e+01  3.7431836203e+01  1.5000000000e+00 0. 9.
#pdf    1   -2  1.088932e-01  6.946130e-02  6.933108e+01  3.360111e-01  5.770187e-01
</event>
<event>
     8  9999  1.000000e+00  7.808668e+01  7.803790e-03  1.296028e-01
        1    -1     0     0   101     0  0.0000000000e+00  0.0000000000e+00  1.9256993229e+02  1.9256993229e+02  0.0000000000e+00 0. 9.
       -2    -1     0     0     0   101  0.0000000000e+00  0.0000000000e+00 -7.8181362542e+01  7.8181362542e+01  0.0000000000e+00 0. 9.
       23     2     1     2     0     0 -8.1290591074e+00  9.8684902330e+00 -4.0971140119e+01  1.0233270496e+02  9.2897144627e+01 0. 9.
      -24     2     1     2     0     0  8.1290591074e+00 -9.8684902330e+00  1.5535970987e+02  1.6841858987e+02  6.3755103825e+01 0. 9.
        3     1     3     0   102     0 -4.5666698896e+01 -1.2917582484e+01 -9.7546465528e+00  4.8453219239e+01  5.0000000000e-01 0. 9.
       -3     1     3     0     0   102  3.7537639788e+01  2.2786072717e+01 -3.1216493566e+01  5.3879485719e+01  5.0000000000e-01 0. 9.
       11     1     4     0     0     0  1.5171519244e+01 -3.3252051597e+01  1.2001997609e+02  1.2546182125e+02  5.1100000000e-04 0. 9.
      -12     1     4     0     0     0 -7.0424601368e+00  2.3383561364e+01  3.5339733780e+01  4.2956768622e+01  0.0000000000e+00 0. 9.
#pdf    1   -2  1.964999e-01  7.977690e-02  6.502447e+01  2.400433e-01  5.760704e-01
</event>
<event>
     8  9999  1.000000e+00  8.881248e+01  7.815172e-03  1.270175e-01
        2    -1     0     0   101     0  0.0000000000e+00  0.0000000000e+00  5.3648363606e+02  5.3648363606e+02  0.0000000000e+00 0. 9.
       -1    -1     0     0     0   101  0.0000000000e+00  0.0000000000e+00 -2.1522082651e+01  2.1522082651e+01  0.0000000000e+00 0. 9.
       23     2     1     2     0     0 -1.4798757950e+01  1.7820739415e+01  1.1105071278e+02  1.4546204116e+02  9.1051428441e+01 0. 9.
       24     2     1     2     0     0  1.4798757950e+01 -1.7820739415e+01  4.0391084064e+02  4.1254367755e+02  8.0695332663e+01 0. 9.
        2     1     3     0   102     0  3.7108128829e+01  1.1871879604e+01  6.5170001630e+01  7.5928866467e+01  3.3000000000e-01 0. 9.
       -2     1     3     0     0   102 -5.1906886779e+01  5.9488598116e+00  4.5880711148e+01  6.9533174698e+01  3.3000000000e-01 0. 9.
       -3     1     4     0     0   103  9.4346945457e+00 -4.5604980334e+01  1.5019194278e+02  1.5724724916e+02  5.0000000000e-01 0. 9.
        4     1     4     0   103     0  5.3640634040e+00  2.7784240919e+01  2.5371889785e+02  2.5529642839e+02  1.5000000000e+00 0. 9.
#pdf    2   -1  5.474323e-01  2.196131e-02  8.395427e+01  8.907144e-02  5.095099e-01
</event>
<event>
     8  9999  1.000000e+00  9.490215e+01  7.821049e-03  1.257252e-01
        2    -1     0     0   101     0  0.0000000000e+00  0.0000000000e+00  1.3799595135e+02  1.3799595135e+02  0.0000000000e+00 0. 9.
       -2    -1     0     0     0   101  0.0000000000e+00  0.0000000000e+00 -2.4252908978e+02  2.4252908978e+02  0.0000000000e+00 0. 9.
      -24     2     1     2     0     0 -3.0948799737e+01 -3.8298529394e+01 -2.1491971099e+02  2.3492160163e+02  8.1074479232e+01 0. 9.
       24     2     1     2     0     0  3.0948799737e+01  3.8298529394e+01  1.1038657256e+02  1.4560343950e+02  8.1182267982e+01 0. 9.
        1     1     3     0   102     0  6.6364317674e-02  2.0370219694e+01 -1.0140627292e+02  1.0343254489e+02  3.3000000000e-01 0. 9.
       -2     1     3     0     0   102 -3.1015164054e+01 -5.8668749088e+01 -1.1351343807e+02  1.3148905674e+02  3.3000000000e-01 0. 9.
       -3     1     4     0     0   103 -2.1855917668e+01 -8.6930161926e+00  3.5741237130e+01  4.2789434434e+01  5.0000000000e-01 0. 9.
        4     1     4     0   103     0  5.2804717404e+01  4.6991545586e+01  7.4645335430e+01  1.0281400507e+02  1.5000000000e+00 0. 9.
#pdf    2   -2  1.408122e-01  2.474787e-01  9.485608e+01  5.458267e-01  4.298583e-01
</event>
<event>
     8  9999  1.000000e+00  1.045356e+02  7.829634e-03  1.238878e-01
        2    -1     0     0   101     0  0.0000000000e+00  0.0000000000e+00  1.6527659791e+02  1.6527659791e+02  0.0000000000e+00 0. 9.
       -3    -1     0     0     0   101  0.0000000000e+00  0.0000000000e+00 -7.4968140213e+01  7.4968140213e+01  0.0000000000e+00 0. 9.
       23     2     1     2     0     0  4.9568991725e+01 -3.0760809620e+01  8.7288978844e+01  1.3815827285e+02  8.9805513091e+01 0. 9.
       24     2     1     2     0     0 -4.9568991725e+01  3.0760809620e+01  3.0194788543e+00  1.0208646527e+02  8.3721065387e+01 0. 9.
        3     1     3     0   102     0  5.0197341538e+01 -2.7037021819e+01  1.0530149238e+02  1.1974735047e+02  5.0000000000e-01 0. 9.
       -3     1     3     0     0   102 -6.2834981315e-01 -3.7237878008e+00 -1.8012513539e+01  1.8410922385e+01  5.0000000000e-01 0. 9.
      -13     1     4     0     0     0 -4.8812989481e+01  5.7393953815e+01  7.7779022355e-01  7.5348457172e+01  1.0566000000e-01  4.735569e+05 9.
       14     1     4     0     0     0 -7.5600224371e-01 -2.6633144195e+01  2.2416886308e+00  2.6738008097e+01  0.0000000000e+00 0. 9.
#pdf    2   -3  1.686496e-01  7.649810e-02  1.020418e+02  5.208543e-01  8.320068e-02
</event>
<event>
     8  9999  1.000000e+00  1.120496e+02  7.835809e-03  1.226013e-01
        1    -1     0     0   101     0  0.0000000000e+00  0.0000000000e+00  1.1718899637e+02  1.1718899637e+02  0.0000000000e+00 0. 9.
       -1    -1     0     0     0   101  0.0000000000e+00  0.0000000000e+00 -3.4623436896e+02  3.4623436896e+02  0.0000000000e+00 0. 9.
      -24     2     1     2     0     0 -9.8253457769e+00  7.7266926027e+01  7.8036909050e+01  1.3653052371e+02  8.0523968186e+01 0. 9.
       24     2     1     2     0     0  9.8253457769e+00 -7.7266926027e+01 -3.0708228165e+02  3.2689284162e+02  8.0577210952e+01 0. 9.
       15     1     3     0     0     0  2.3999340712e+01  4.9969773788e+00  4.2686440136e+01  4.9256755907e+01  1.7769900000e+00  6.488052e-02 9.
      -16     1     3     0     0     0 -3.3824686489e+01  7.2269948648e+01  3.5350468914e+01  8.7273767800e+01  0.0000000000e+00 0. 9.
       -3     1     4     0     0   102 -3.1198581877e+01 -5.8778603593e+01 -1.6777968417e+02  1.8049528573e+02  5.0000000000e-01 0. 9.
        4     1     4     0   102     0  4.1023927653e+01 -1.8488322434e+01 -1.3930259748e+02  1.4639755589e+02  1.5000000000e+00 0. 9.
#pdf    1   -1  1.195806e-01  3.533004e-01  1.120305e+02  3.162059e-01  9.698395e-02
</event>
<event>
     8  9999  1.000000e+00  1.044307e+02  7.829545e-03  1.239066e-01
        1    -1     0     0   101     0  0.0000000000e+00  0.0000000000e+00  7.5402048743e+01  7.5402048743e+01  0.0000000000e+00 0. 9.
       -1    -1     0     0     0   101  0.0000000000e+00  0.0000000000e+00 -1.4792068488e+02  1.4792068488e+02  0.0000000000e+00 0. 9.
       23     2     1     2     0     0 -1.0486114188e+01  3.0566290893e+01 -2.0041773475e+01  1.0744479555e+02  1.0049106765e+02 0. 9.
       23     2     1     2     0     0  1.0486114188e+01 -3.0566290893e+01 -5.2476862661e+01  1.1587793807e+02  9.8130620534e+01 0. 9.
       15     1     3     0     0     0  1.1218697316e+01  4.0608691666e+01  3.0137116706e+01  5.1829803251e+01  1.7769900000e+00  1.665527e-01 9.
      -15     1     3     0     0     0 -2.1704811504e+01 -1.0042400772e+01 -5.0178890181e+01  5.5614992303e+01  1.7769900000e+00  9.377265e-02 9.
       11     1     4     0     0     0 -2.0974545682e+01 -5.6671452577e+01 -4.2260831960e+01  7.3739833347e+01  5.1100000000e-04 0. 9.
      -11     1     4     0     0     0  3.1460659869e+01  2.6105161684e+01 -1.0216030701e+01  4.2138104721e+01  5.1100000000e-04 0. 9.
#pdf    1   -1  7.694087e-02  1.509395e-01  1.033144e+02  3.721180e-01  2.810386e-01
</event>
<event>
     8  9999  1.000000e+00  1.192269e+02  7.841340e-03  1.214731e-01
        2    -1     0     0   101     0  0.0000000000e+00  0.0000000000e+00  9.6093953800e+01  9.6093953800e+01  0.0000000000e+00 0. 9.
       -2    -1     0     0     0   101  0.0000000000e+00  0.0000000000e+00 -2.0200600498e+02  2.0200600498e+02  0.0000000000e+00 0. 9.
      -24     2     1     2     0     0  7.5328663504e+01 -2.8447636093e+01 -1.3122181440e+02  1.8004671108e+02  9.3348690679e+01 0. 9.
       24     2     1     2     0     0 -7.5328663504e+01  2.8447636093e+01  2.5309763217e+01  1.1805324770e+02  8.2536716886e+01 0. 9.
        3     1     3     0   102     0  4.0509528968e+01 -4.1459827522e+00  1.4375258839e+00  4.0749571664e+01  5.0000000000e-01 0. 9.
       -4     1     3     0     0   102  3.4819134536e+01 -2.4301653340e+01 -1.3265934028e+02  1.3929713941e+02  1.5000000000e+00 0. 9.
      -15     1     4     0     0     0 -9.9326098778e+00  3.2334181293e+00 -2.8036866476e+01  2.9972242276e+01  1.7769900000e+00  5.789184e-02 9.
       16     1     4     0     0     0 -6.5396053626e+01  2.5214217963e+01  5.3346629693e+01  8.8081005426e+01  0.0000000000e+00 0. 9.
#pdf    2   -2  9.805505e-02  2.061286e-01  1.153082e+02  5.651668e-01  4.765359e-01
</event>
<event>
     8  9999  1.000000e+00  9.631614e+01  7.822361e-03  1.254406e-01
       -1    -1     0     0     0   101  0.0000000000e+00  0.0000000000e+00  1.4059502235e+02  1.4059502235e+02  0.0000000000e+00 0. 9.
        1    -1     0     0   101     0  0.0000000000e+00  0.0000000000e+00 -8.1346046255e+01  8.1346046255e+01  0.0000000000e+00 0. 9.
      -24     2     1     2     0     0  4.3486100144e+01  3.2386376068e+01  7.7907098469e+01  1.2405732357e+02  7.9879817720e+01 0. 9.
       24     2     1     2     0     0 -4.3486100144e+01 -3.2386376068e+01 -1.8658122370e+01  9.7883745039e+01  7.9329589385e+01 0. 9.
        1     1     3     0   102     0  5.4072534413e+00 -2.6033237784e+01  1.7858494051e+01  3.2031274859e+01  3.3000000000e-01 0. 9.
       -2     1     3     0     0   102  3.8078846702e+01  5.8419613852e+01  6.0048604418e+01  9.2026048711e+01  3.3000000000e-01 0. 9.
       -3     1     4     0     0   103  1.2842468807e+01  1.6583892589e+01 -2.0195883542e-01  2.0982022921e+01  5.0000000000e-01 0. 9.
        4     1     4     0   103     0 -5.6328568951e+01 -4.8970268657e+01 -1.8456163535e+01  7.6901722118e+01  1.5000000000e+00 0. 9.
#pdf   -1    1  1.434643e-01  8.300617e-02  9.608903e+01  7.751942e-02  1.439975e-01
</event>
<event>
     8  9999  1.000000e+00  1.197419e+02  7.841725e-03  1.213955e-01
        2    -1     0     0   101     0  0.0000000000e+00  0.0000000000e+00  6.9161098325e+01  6.9161098325e+01  0.0000000000e+00 0. 9.
       -2    -1     0     0     0   101  0.0000000000e+00  0.0000000000e+00 -2.2002516707e+02  2.2002516707e+02  0.0000000000e+00 0. 9.
      -24     2     1     2     0     0  8.6727626344e+01  2.3925935999e+01 -4.0596729575e+01  1.2630409270e+02  7.8806711624e+01 0. 9.
       24     2     1     2     0     0 -8.6727626344e+01 -2.3925935999e+01 -1.1026733917e+02  1.6288217269e+02  7.9231209179e+01 0. 9.
       11     1     3     0     0     0  2.0640208203e+01  3.9903962575e+01 -3.7028509507e+01  5.8219025588e+01  5.1100000000e-04 0. 9.
      -12     1     3     0     0     0  6.6087418141e+01 -1.5978026575e+01 -3.5682200683e+00  6.8085067117e+01  0.0000000000e+00 0. 9.
       -1     1     4     0     0   102 -5.0753467142e+01 -3.0618129245e+01 -1.1149142585e+02  1.2626888454e+02  3.3000000000e-01 0. 9.
        2     1     4     0   102     0 -3.5974159202e+01  6.6921932458e+00  1.2240866821e+00  3.6613288147e+01  3.3000000000e-01 0. 9.
#pdf    2   -2  7.057255e-02  2.245155e-01  1.196020e+02  5.740142e-01  4.524111e-01
</event>
<event>
     8  9999  1.000000e+00  1.057036e+02  7.830622e-03  1.236800e-01
        2    -1     0     0   101     0  0.0000000000e+00  0.0000000000e+00  1.3068998790e+02  1.3068998790e+02  0.0000000000e+00 0. 9.
       -2    -1     0     0     0   101  0.0000000000e+00  0.0000000000e+00 -2.4694614251e+02  2.4694614251e+02  0.0000000000e+00 0. 9.
      -24     2     1     2     0     0 -3.3990430433e+01  5.7523734266e+01 -2.1047449035e+02  2.3480318791e+02  7.9804113931e+01 0. 9.
       24     2     1     2     0     0  3.3990430433e+01 -5.7523734266e+01  9.4218335738e+01  1.4283294249e+02  8.4022766597e+01 0. 9.
       15     1     3     0     0     0 -4.8353179434e+01  6.3318112165e+01 -1.2719945590e+02  1.5010020841e+02  1.7769900000e+00  2.472254e-02 9.
      -16     1     3     0     0     0  1.4362749001e+01 -5.7943778990e+00 -8.3275034447e+01  8.4702979501e+01  0.0000000000e+00 0. 9.
      -11     1     4     0     0     0 -1.2433770278e+00 -2.8663848304e+01 -8.9536138665e+00  3.0055438568e+01  5.1100000000e-04 0. 9.
       12     1     4     0     0     0  3.5233807461e+01 -2.8859885962e+01  1.0317194960e+02  1.1277750392e+02  0.0000000000e+00 0. 9.
#pdf    2   -2  1.333571e-01  2.519859e-01  1.040818e+02  5.488290e-01  4.205401e-01
</event>
<event>
     8  9999  1.000000e+00  1.073106e+02  7.831964e-03  1.233990e-01
        1    -1     0     0   101     0  0.0000000000e+00  0.0000000000e+00  1.6528765115e+02  1.6528765115e+02  0.0000000000e+00 0. 9.
       -1    -1     0     0     0   101  0.0000000000e+00  0.0000000000e+00 -1.5936389473e+02  1.5936389473e+02  0.0000000000e+00 0. 9.
      -24     2     1     2     0     0 -5.1304297699e+01  4.9980647517e+01  1.2474290556e+02  1.6463821037e+02  8.0092145301e+01 0. 9.
       24     2     1     2     0     0  5.1304297699e+01 -4.9980647517e+01 -1.1881914914e+02  1.6001333550e+02  7.9725035259e+01 0. 9.
       11     1     3     0     0     0 -4.2815145379e+01  5.7957648414e+01  1.3237187479e+02  1.5071343311e+02  5.1100000000e-04 0. 9.
      -12     1     3     0     0     0 -8.4891523203e+00 -7.9770008973e+00 -7.6289692290e+00  1.3924777267e+01  0.0000000000e+00 0. 9.
       -3     1     4     0     0   102  3.4130087887e+01  7.6429208520e+00 -8.2850426432e+01  8.9931753559e+01  5.0000000000e-01 0. 9.
        4     1     4     0   102     0  1.7174209812e+01 -5.7623568369e+01 -3.5968722712e+01  7.0081581944e+01  1.5000000000e+00 0. 9.
#pdf    1   -1  1.686609e-01  1.626162e-01  1.071741e+02  2.606147e-01  2.673069e-01
</event>
<event>
     8  9999  1.000000e+00  1.026564e+02  7.828022e-03  1.242284e-01
        2    -1     0     0   101     0  0.0000000000e+00  0.0000000000e+00  2.9901120305e+01  2.9901120305e+01  0.0000000000e+00 0. 9.
       -2    -1     0     0     0   101  0.0000000000e+00  0.0000000000e+00 -3.5289914484e+02  3.5289914484e+02  0.0000000000e+00 0. 9.
      -24     2     1     2     0     0 -6.1471183182e+01  2.1475013887e+01 -1.6850912447e+02  1.9735008808e+02  7.9447150051e+01 0. 9.
       24     2     1     2     0     0  6.1471183182e+01 -2.1475013887e+01 -1.5448890006e+02  1.8545017707e+02  7.9278404047e+01 0. 9.
       11     1     3     0     0     0  1.1631804684e+01  8.7809825280e+00 -1.5619041479e+00  1.4657560479e+01  5.1100000000e-04 0. 9.
      -12     1     3     0     0     0 -7.3102987866e+01  1.2694031359e+01 -1.6694722032e+02  1.8269252760e+02  0.0000000000e+00 0. 9.
      -11     1     4     0     0     0  6.1572384960e+00  5.6614417881e-01 -1.1231212598e+02  1.1248220192e+02  5.1100000000e-04 0. 9.
       12     1     4     0     0     0  5.5313944686e+01 -2.2041158065e+01 -4.2176774080e+01  7.2967975149e+01  0.0000000000e+00 0. 9.
#pdf    2   -2  3.051135e-02  3.601012e-01  1.025912e+02  6.043017e-01  2.724450e-01
</event>
<event>
     8  9999  1.000000e+00  1.102714e+02  7.834385e-03  1.228954e-01
        2    -1     0     0   101     0  0.0000000000e+00  0.0000000000e+00  4.0161773429e+01  4.0161773429e+01  0.0000000000e+00 0. 9.
       -2    -1     0     0     0   101  0.0000000000e+00  0.0000000000e+00 -3.0410494166e+02  3.0410494166e+02  0.0000000000e+00 0. 9.
      -24     2     1     2     0     0  2.5579303290e+01 -7.1326352933e+01 -1.2034469762e+02  1.6309822892e+02  7.9852593277e+01 0. 9.
       24     2     1     2     0     0 -2.5579303290e+01  7.1326352933e+01 -1.4359847061e+02  1.8116848617e+02  8.0372571432e+01 0. 9.
        3     1     3     0   102     0 -1.7800483996e+01  7.8260341093e+00 -2.6622127918e+01  3.2971074220e+01  5.0000000000e-01 0. 9.
       -4     1     3     0     0   102  4.3379787286e+01 -7.9152387042e+01 -9.3722569704e+01  1.3012715470e+02  1.5000000000e+00 0. 9.
       -3     1     4     0     0   103  2.2343132041e+01 -1.4203291592e+00 -3.9641679428e+01  4.5529612695e+01  5.0000000000e-01 0. 9.
        4     1     4     0   103     0 -4.7922435331e+01  7.2746682092e+01 -1.0395679119e+02  1.3563887347e+02  1.5000000000e+00 0. 9.
#pdf    2   -2  4.098140e-02  3.103112e-01  1.100826e+02  5.899117e-01  3.374378e-01
</event>
<event>
     8  9999  1.000000e+00  1.115698e+02  7.835427e-03  1.226801e-01
        2    -1     0     0   101     0  0.0000000000e+00  0.0000000000e+00  1.0665876840e+02  1.0665876840e+02  0.0000000000e+00 0. 9.
       -2    -1     0     0     0   101  0.0000000000e+00  0.0000000000e+00 -1.3913317688e+02  1.3913317688e+02  0.0000000000e+00 0. 9.
      -24     2     1     2     0     0 -3.0393647489e+01  6.9594077589e+01  3.3138433343e+01  1.1610028528e+02  8.1326570279e+01 0. 9.
       24     2     1     2     0     0  3.0393647489e+01 -6.9594077589e+01 -6.5612841821e+01  1.2969166000e+02  8.2144824668e+01 0. 9.
       13     1     3     0     0     0 -3.2490171554e+01  6.8664264359e+01  5.5211743166e+01  9.3908147650e+01  1.0566000000e-01  1.039915e+05 9.
      -14     1     3     0     0     0  2.0965240649e+00  9.2981323008e-01 -2.2073309823e+01  2.2192137625e+01  0.0000000000e+00 0. 9.
      -13     1     4     0     0     0  3.4412459361e+01 -7.8417479082e+01 -2.6867784663e+01  8.9751921437e+01  1.0566000000e-01  3.078177e+05 9.
       14     1     4     0     0     0 -4.0188118711e+00  8.8234014925e+00 -3.8745057158e+01  3.9939738568e+01  0.0000000000e+00 0. 9.
#pdf    2   -2  1.088355e-01  1.419726e-01  1.112705e+02  5.611578e-01  5.413162e-01
</event>
<event>
     8  9999  1.000000e+00  8.814768e+01  7.814506e-03  1.271656e-01
        2    -1     0     0   101     0  0.0000000000e+00  0.0000000000e+00  1.7011784631e+02  1.7011784631e+02  0.0000000000e+00 0. 9.
       -2    -1     0     0     0   101  0.0000000000e+00  0.0000000000e+00 -1.1569518105e+02  1.1569518105e+02  0.0000000000e+00 0. 9.
      -24     2     1     2     0     0 -3.4024731521e+01  1.1046187842e+01 -8.4041446151e+01  1.2131350824e+02  7.9839225888e+01 0. 9.
       24     2     1     2     0     0  3.4024731521e+01 -1.1046187842e+01  1.3846411142e+02  1.6449951912e+02  8.1290104060e+01 0. 9.
       15     1     3     0     0     0 -5.5321168654e+01  4.7023240562e+00 -3.0562417149e+01  6.3401597679e+01  1.7769900000e+00  5.945210e-02 9.
      -16     1     3     0     0     0  2.1296437133e+01  6.3438637856e+00 -5.3479029002e+01  5.7911910565e+01  0.0000000000e+00 0. 9.
       -3     1     4     0     0   102  5.5359103166e+01 -2.3769872575e+01  1.1714679253e+02  1.3173176589e+02  5.0000000000e-01 0. 9.
        4     1     4     0   102     0 -2.1334371645e+01  1.2723684734e+01  2.1317318889e+01  3.2767753223e+01  1.5000000000e+00 0. 9.
#pdf    2   -2  1.735896e-01  1.180563e-01  8.748716e+01  5.204242e-01  5.610036e-01
</event>
<event>
     8  9999  1.000000e+00  1.011592e+02  7.826717e-03  1.245057e-01
        1    -1     0     0   101     0  0.0000000000e+00  0.0000000000e+00  5.4172547455e+01  5.4172547455e+01  0.0000000000e+00 0. 9.
       -2    -1     0     0     0   101  0.0000000000e+00  0.0000000000e+00 -3.2058191445e+02  3.2058191445e+02  0.0000000000e+00 0. 9.
       23     2     1     2     0     0  3.8251891332e+01  3.4522893154e+01 -2.5713754983e+02  2.7839294723e+02  9.3423103098e+01 0. 9.
      -24     2     1     2     0     0 -3.8251891332e+01 -3.4522893154e+01 -9.2718171583e+00  9.6361514670e+01  8.0898316261e+01 0. 9.
        3     1     3     0   102     0  1.4974376352e+01  4.7542014320e+01 -5.3915317962e+01  7.3427423921e+01  5.0000000000e-01 0. 9.
       -3     1     3     0     0   102  2.3277514980e+01 -1.3019121167e+01 -2.0322223187e+02  2.0496552331e+02  5.0000000000e-01 0. 9.
       11     1     4     0     0     0 -3.2587778389e+01  2.1326554417e+01  2.4196192009e+00  3.9021017170e+01  5.1100000000e-04 0. 9.
      -12     1     4     0     0     0 -5.6641129434e+00 -5.5849447571e+01 -1.1691436359e+01  5.7340497500e+01  0.0000000000e+00 0. 9.
#pdf    1   -2  5.527811e-02  3.271244e-01  9.591441e+01  4.073758e-01  3.189135e-01
</event>
<event>
     8  9999  1.000000e+00  1.323416e+02  7.850656e-03  1.196228e-01
        1    -1     0     0   101     0  0.0000000000e+00  0.0000000000e+00  1.5979917063e+02  1.5979917063e+02  0.0000000000e+00 0. 9.
       -1    -1     0     0     0   101  0.0000000000e+00  0.0000000000e+00 -2.7161029863e+02  2.7161029863e+02  0.0000000000e+00 0. 9.
       23     2     1     2     0     0  2.8737334786e+01 -5.8372132908e+01 -2.1605711936e+02  2.4328998365e+02  9.0973606101e+01 0. 9.
       23     2     1     2     0     0 -2.8737334786e+01  5.8372132908e+01  1.0424599136e+02  1.8811948561e+02  1.4243796489e+02 0. 9.
       14     1     3     0     0     0  1.5005682168e+01  2.3748830185e+01 -4.5064794605e+01  5.3103795959e+01  0.0000000000e+00 0. 9.
      -14     1     3     0     0     0  1.3731652618e+01 -8.2120963093e+01 -1.7099232476e+02  1.9018618769e+02  0.0000000000e+00 0. 9.
        5     1     4     0   102     0  1.4708992334e+01  8.6919968772e-01  1.1416444602e+02  1.1521141739e+02  4.8000000000e+00 0. 9.
       -5     1     4     0     0   102 -4.3446327119e+01  5.7502933221e+01 -9.9184546508e+00  7.2908068222e+01  4.8000000000e+00 0. 9.
#pdf    1   -1  1.630604e-01  2.771534e-01  1.118451e+02  2.660731e-01  1.531077e-01
</event>
<event>
     8  9999  1.000000e+00  1.039912e+02  7.829170e-03  1.239856e-01
        2    -1     0     0   101     0  0.0000000000e+00  0.0000000000e+00  7.6629905313e+01  7.6629905313e+01  0.0000000000e+00 0. 9.
       -2    -1     0     0     0   101  0.0000000000e+00  0.0000000000e+00 -1.4387069853e+02  1.4387069853e+02  0.0000000000e+00 0. 9.
       23     2     1     2     0     0 -3.7002637838e+01  3.2249875612e+01 -1.8346481871e+01  1.0548754133e+02  9.1552052378e+01 0. 9.
       23     2     1     2     0     0  3.7002637838e+01 -3.2249875612e+01 -4.8894311345e+01  1.1501306251e+02  9.1804690418e+01 0. 9.
       13     1     3     0     0     0 -1.4350786631e+01  5.0217484581e+01  2.1311781988e+01  5.6408723174e+01  1.0566000000e-01  3.675271e+05 9.
      -13     1     3     0     0     0 -2.2651851207e+01 -1.7967608968e+01 -3.9658263859e+01  4.9078818155e+01  1.0566000000e-01  6.196986e+05 9.
       16     1     4     0     0     0  3.2223436865e+01 -7.5603455258e-01 -6.9819522746e+01  7.6900502132e+01  0.0000000000e+00 0. 9.
      -16     1     4     0     0     0  4.7792009726e+00 -3.1493841060e+01  2.0925211401e+01  3.8112560381e+01  0.0000000000e+00 0. 9.
#pdf    2   -2  7.819378e-02  1.468068e-01  1.038799e+02  5.727068e-01  5.392609e-01
</event>
<event>
     8  9999  1.000000e+00  9.435809e+01  7.820539e-03  1.258362e-01
        2    -1     0     0   101     0  0.0000000000e+00  0.0000000000e+00  5.0189176771e+02  5.0189176771e+02  0.0000000000e+00 0. 9.
       -1    -1     0     0     0   101  0.0000000000e+00  0.0000000000e+00 -2.7041625076e+01  2.7041625076e+01  0.0000000000e+00 0. 9.
       23     2     1     2     0     0 -1.3095667303e+01  1.4582943993e+01  8.1171003398e+01  1.2393985703e+02  9.1587103947e+01 0. 9.
       24     2     1     2     0     0  1.3095667303e+01 -1.4582943993e+01  3.9367913924e+02  4.0499353576e+02  9.3017958375e+01 0. 9.
       11     1     3     0     0     0 -3.5913689603e+01  3.4058529921e+01  1.5704093994e+01  5.1926824760e+01  5.1100000000e-04 0. 9.
      -11     1     3     0     0     0  2.2818022299e+01 -1.9475585928e+01  6.5466909404e+01  7.2013032266e+01  5.1100000000e-04 0. 9.
      -13     1     4     0     0     0  4.5643992683e+01  3.2798287705e+00  3.1115447416e+02  3.1450158870e+02  1.0566000000e-01  2.087575e+06 9.
       14     1     4     0     0     0 -3.2548325379e+01 -1.7862772764e+01  8.2524665081e+01  9.0491947059e+01  0.0000000000e+00 0. 9.
#pdf    2   -1  5.121345e-01  2.759349e-02  9.366086e+01  1.133139e-01  4.824661e-01
</event>
<event>
     8  9999  1.000000e+00  8.352858e+01  7.809743e-03  1.282366e-01
        2    -1     0     0   101     0  0.0000000000e+00  0.0000000000e+00  2.2982239034e+02  2.2982239034e+02  0.0000000000e+00 0. 9.
       -2    -1     0     0     0   101  0.0000000000e+00  0.0000000000e+00 -1.1742290043e+02  1.1742290043e+02  0.0000000000e+00 0. 9.
      -24     2     1     2     0     0  2.0851536822e+01 -1.0966328992e+01 -9.3371776999e+01  1.2501636819e+02  7.9722999292e+01 0. 9.
       24     2     1     2     0     0 -2.0851536822e+01  1.0966328992e+01  2.0577126691e+02  2.2222892257e+02  8.0553291574e+01 0. 9.
        3     1     3     0   102     0  2.0693466436e+01 -3.1970732999e+01 -1.0495305058e+01  3.9506312785e+01  5.0000000000e-01 0. 9.
       -4     1     3     0     0   102  1.5807038541e-01  2.1004404007e+01 -8.2876471941e+01  8.5510055405e+01  1.5000000000e+00 0. 9.
       -3     1     4     0     0   103  2.9852600657e+01  1.4243920901e+01  8.3199282839e+01  8.9534561559e+01  5.0000000000e-01 0. 9.
        4     1     4     0   103     0 -5.0704137479e+01 -3.2775919094e+00  1.2257198407e+02  1.3269436101e+02  1.5000000000e+00 0. 9.
#pdf    2   -2  2.345126e-01  1.198193e-01  8.313124e+01  4.516645e-01  5.611038e-01
</event>
<event>
     8  9999  1.000000e+00  8.543393e+01  7.811738e-03  1.277856e-01
        1    -1     0     0   101     0  0.0000000000e+00  0.0000000000e+00  2.9531381974e+01  2.9531381974e+01  0.0000000000e+00 0. 9.
       -2    -1     0     0     0   101  0.0000000000e+00  0.0000000000e+00 -2.7631350617e+02  2.7631350617e+02  0.0000000000e+00 0. 9.
       23     2     1     2     0     0  1.9159154781e+00  1.6461790073e+00 -8.2479134737e+01  1.2321595780e+02  9.1504010577e+01 0. 9.
      -24     2     1     2     0     0 -1.9159154781e+00 -1.6461790073e+00 -1.6430298946e+02  1.8262893034e+02  7.9696130497e+01 0. 9.
       12     1     3     0     0     0 -2.6500618235e+00  3.7794117727e+01 -5.8101535680e+00  3.8329832336e+01  0.0000000000e+00 0. 9.
      -12     1     3     0     0     0  4.5659773016e+00 -3.6147938720e+01 -7.6668981169e+01  8.4886125462e+01  0.0000000000e+00 0. 9.
       15     1     4     0     0     0 -2.7342563058e+01  1.8441355256e+01 -3.0495384779e+01  4.4953593010e+01  1.7769900000e+00  2.729987e-01 9.
      -16     1     4     0     0     0  2.5426647580e+01 -2.0087534263e+01 -1.3380760468e+02  1.3767533733e+02  0.0000000000e+00 0. 9.
#pdf    1   -2  3.013406e-02  2.819526e-01  7.973615e+01  4.706569e-01  3.885354e-01
</event>
<event>
     8  9999  1.000000e+00  8.400447e+01  7.810246e-03  1.281227e-01
        1    -1     0     0   101     0  0.0000000000e+00  0.0000000000e+00  2.0355268143e+02  2.0355268143e+02  0.0000000000e+00 0. 9.
       -2    -1     0     0     0   101  0.0000000000e+00  0.0000000000e+00 -4.8117435053e+01  4.8117435053e+01  0.0000000000e+00 0. 9.
       23     2     1     2     0     0 -6.3654568188e+00  1.3401385096e+00  1.4679699350e+02  1.7133533350e+02  8.8114267823e+01 0. 9.
      -24     2     1     2     0     0  6.3654568188e+00 -1.3401385096e+00  8.6382528791e+00  8.0334782983e+01  7.9603661551e+01 0. 9.
        1     1     3     0   102     0 -1.8048813997e+01 -7.2104096256e+00  1.5395764648e+02  1.5517994556e+02  3.3000000000e-01 0. 9.
       -1     1     3     0     0   102  1.1683357178e+01  8.5505481352e+00 -7.1606529840e+00  1.6155387941e+01  3.3000000000e-01 0. 9.
       13     1     4     0     0     0 -2.2718994500e+01  1.5434703698e+01  2.9894531338e+01  4.0596514103e+01  1.0566000000e-01  3.419079e+05 9.
      -14     1     4     0     0     0  2.9084451319e+01 -1.6774842208e+01 -2.1256278459e+01  3.9738268880e+01  0.0000000000e+00 0. 9.
#pdf    1   -2  2.077068e-01  4.909942e-02  7.986900e+01  2.244605e-01  5.822875e-01
</event>
<event>
     8  9999  1.000000e+00  9.227621e+01  7.818561e-03  1.262688e-01
        1    -1     0     0   101     0  0.0000000000e+00  0.0000000000e+00  7.1965909403e+01  7.1965909403e+01  0.0000000000e+00 0. 9.
       -2    -1     0     0     0   101  0.0000000000e+00  0.0000000000e+00 -1.8438917773e+02  1.8438917773e+02  0.0000000000e+00 0. 9.
       23     2     1     2     0     0  7.4566176120e+00 -3.3265529804e+01  1.8993999450e+01  9.7745768600e+01  8.9617334511e+01 0. 9.
      -24     2     1     2     0     0 -7.4566176120e+00  3.3265529804e+01 -1.3141726778e+02  1.5860931853e+02  8.2001347771e+01 0. 9.
        5     1     3     0   102     0  1.0893063374e+01 -6.3037450960e+01  2.0526807274e+01  6.7355540752e+01  4.8000000000e+00 0. 9.
       -5     1     3     0     0   102 -3.4364457624e+00  2.9771921156e+01 -1.5328078248e+00  3.0390227848e+01  4.8000000000e+00 0. 9.
       11     1     4     0     0     0 -3.7150842853e+01 -4.1457083698e+00 -8.0723450794e+01  8.8958684404e+01  5.1100000000e-04 0. 9.
      -12     1     4     0     0     0  2.9694225241e+01  3.7411238174e+01 -5.0693816985e+01  6.9650634131e+01  0.0000000000e+00 0. 9.
#pdf    1   -2  7.343460e-02  1.881522e-01  8.880550e+01  3.785191e-01  5.051183e-01
</event>
<event>
     8  9999  1.000000e+00  1.047400e+02  7.829808e-03  1.238512e-01
        1    -1     0     0   101     0  0.0000000000e+00  0.0000000000e+00  5.5056004901e+01  5.5056004901e+01  0.0000000000e+00 0. 9.
       -2    -1     0     0     0   101  0.0000000000e+00  0.0000000000e+00 -3.0065634961e+02  3.0065634961e+02  0.0000000000e+00 0. 9.
       23     2     1     2     0     0 -6.3475919070e+01  9.0919808558e+00 -2.3034591799e+02  2.5568253702e+02  9.0567441084e+01 0. 9.
      -24     2     1     2     0     0  6.3475919070e+01 -9.0919808558e+00 -1.5254426716e+01  1.0002981749e+02  7.5242344690e+01 0. 9.
        4     1     3     0   102     0 -4.3680171793e+01  3.9771286476e+01 -1.9883504174e+02  2.0743031711e+02  1.5000000000e+00 0. 9.
       -4     1     3     0     0   102 -1.9795747277e+01 -3.0679305621e+01 -3.1510876258e+01  4.8252219909e+01  1.5000000000e+00 0. 9.
       15     1     4     0     0     0  3.7700492198e+01 -1.3142044965e+01  2.8500230423e+01  4.9086263714e+01  1.7769900000e+00  7.289192e-03 9.
      -16     1     4     0     0     0  2.5775426872e+01  4.0500641090e+00 -4.3754657138e+01  5.0943553773e+01  0.0000000000e+00 0. 9.
#pdf    1   -2  5.617960e-02  3.067922e-01  9.885983e+01  4.055968e-01  3.460417e-01
</event>
<event>
     8  9999  1.000000e+00  1.299509e+02  7.849027e-03  1.199419e-01
        1    -1     0     0   101     0  0.0000000000e+00  0.0000000000e+00  3.6491446078e+02  3.6491446078e+02  0.0000000000e+00 0. 9.
       -2    -1     0     0     0   101  0.0000000000e+00  0.0000000000e+00 -2.7874790055e+02  2.7874790055e+02  0.0000000000e+00 0. 9.
       23     2     1     2     0     0 -9.7051137952e+01  1.4894575574e+01  3.3712828342e+02  3.6244989930e+02  8.9853649128e+01 0. 9.
      -24     2     1     2     0     0  9.7051137952e+01 -1.4894575574e+01 -2.5096172318e+02  2.8121246203e+02  8.0361001378e+01 0. 9.
        4     1     3     0   102     0 -7.9054973145e+01  1.0169585425e+00  3.2883942199e+02  3.3821345100e+02  1.5000000000e+00 0. 9.
       -4     1     3     0     0   102 -1.7996164807e+01  1.3877617032e+01  8.2888614273e+00  2.4236448296e+01  1.5000000000e+00 0. 9.
       15     1     4     0     0     0  1.8032145689e+00  2.3196343879e+01 -6.1215149009e+01  6.5511633423e+01  1.7769900000e+00  5.654892e-02 9.
      -16     1     4     0     0     0  9.5247923384e+01 -3.8090919454e+01 -1.8974657417e+02  2.1570082861e+02  0.0000000000e+00 0. 9.
#pdf    1   -2  3.723617e-01  2.844366e-01  1.268805e+02  8.406678e-02  3.687790e-01
</event>
<event>
     8  9999  1.000000e+00  9.708588e+01  7.823068e-03  1.252880e-01
       -3    -1     0     0     0   101  0.0000000000e+00  0.0000000000e+00  9.3515105950e+01  9.3515105950e+01  0.0000000000e+00 0. 9.
        3    -1     0     0   101     0  0.0000000000e+00  0.0000000000e+00 -1.0343962664e+02  1.0343962664e+02  0.0000000000e+00 0. 9.
      -24     2     1     2     0     0  3.8835493032e+01  3.8734713611e+01 -2.0679021147e+01  9.8749037650e+01  7.9468087706e+01 0. 9.
       24     2     1     2     0     0 -3.8835493032e+01 -3.8734713611e+01  1.0754500459e+01  9.8205694937e+01  8.0747295189e+01 0. 9.
       15     1     3     0     0     0  5.0984730334e+01  3.4715096974e+01 -4.1461654354e+01  7.4342499019e+01  1.7769900000e+00  1.383213e-01 9.
      -16     1     3     0     0     0 -1.2149237302e+01  4.0196166377e+00  2.0782633207e+01  2.4406538632e+01  0.0000000000e+00 0. 9.
      -13     1     4     0     0     0  1.1757643800e+00 -9.4878654975e-01  3.7142166572e+01  3.7173032153e+01  1.0566000000e-01  1.354771e+05 9.
       14     1     4     0     0     0 -4.0011257412e+01 -3.7785927062e+01 -2.6387666112e+01  6.1032662783e+01  0.0000000000e+00 0. 9.
#pdf   -3    3  9.542358e-02  1.055506e-01  9.655957e+01  6.475108e-02  5.706291e-02
</event>
<event>
     8  9999  1.000000e+00  9.930387e+01  7.825073e-03  1.248568e-01
        2    -1     0     0   101     0  0.0000000000e+00  0.0000000000e+00  1.1355817440e+02  1.1355817440e+02  0.0000000000e+00 0. 9.
       -1    -1     0     0     0   101  0.0000000000e+00  0.0000000000e+00 -9.8558915293e+01  9.8558915293e+01  0.0000000000e+00 0. 9.
       23     2     1     2     0     0  4.9057270971e+01  4.2816998886e+00 -2.8549662281e+01  1.0731189833e+02  9.0971487385e+01 0. 9.
       24     2     1     2     0     0 -4.9057270971e+01 -4.2816998886e+00  4.3548921390e+01  1.0480519137e+02  8.1625184805e+01 0. 9.
       16     1     3     0     0     0  5.3244500997e+01  2.9982837106e+01  8.8460773460e+00  6.1743019782e+01  0.0000000000e+00 0. 9.
      -16     1     3     0     0     0 -4.1872300268e+00 -2.5701137217e+01 -3.7395739627e+01  4.5568878545e+01  0.0000000000e+00 0. 9.
      -13     1     4     0     0     0  2.1569141575e+01 -3.9940113330e+00  2.0189836349e-01  2.1936998924e+01  1.0566000000e-01  1.483776e+05 9.
       14     1     4     0     0     0 -7.0626412545e+01 -2.8768855562e-01  4.3347023027e+01  8.2868192444e+01  0.0000000000e+00 0. 9.
#pdf    2   -1  1.158757e-01  1.005703e-01  9.532901e+01  5.604940e-01  3.417043e-01
</event>
<event>
     8  9999  1.000000e+00  1.672509e+02  7.871633e-03  1.156702e-01
        2    -1     0     0   101     0  0.0000000000e+00  0.0000000000e+00  6.5740314772e+02  6.5740314772e+02  0.0000000000e+00 0. 9.
       -2    -1     0     0     0   101  0.0000000000e+00  0.0000000000e+00 -4.3703395170e+01  4.3703395170e+01  0.0000000000e+00 0. 9.
      -24     2     1     2     0     0 -1.3932419779e+02  3.2361738945e+01  2.4247303980e+02  2.9199253427e+02  7.7510972152e+01 0. 9.
       24     2     1     2     0     0  1.3932419779e+02 -3.2361738945e+01  3.7122671275e+02  4.0911400862e+02  9.5427907610e+01 0. 9.
       15     1     3     0     0     0 -3.2057751586e+01  2.3752906468e+01  1.3141897233e+02  1.3735357288e+02  1.7769900000e+00  4.548420e-02 9.
      -16     1     3     0     0     0 -1.0726644620e+02  8.6088324761e+00  1.1105406747e+02  1.5463896139e+02  0.0000000000e+00 0. 9.
       -1     1     4     0     0   102  1.2322892937e+01  2.8522592535e+01  7.0114549096e+01  7.6691269843e+01  3.3000000000e-01 0. 9.
        2     1     4     0   102     0  1.2700130485e+02 -6.0884331479e+01  3.0111216365e+02  3.3242273877e+02  3.3000000000e-01 0. 9.
#pdf    2   -2  6.708195e-01  4.459530e-02  1.626852e+02  2.408222e-02  5.883629e-01
</event>
<event>
     8  9999  1.000000e+00  1.076590e+02  7.832252e-03  1.233389e-01
        2    -1     0     0   101     0  0.0000000000e+00  0.0000000000e+00  2.1709064086e+02  2.1709064086e+02  0.0000000000e+00 0. 9.
       -2    -1     0     0     0   101  0.0000000000e+00  0.0000000000e+00 -6.3913411356e+01  6.3913411356e+01  0.0000000000e+00 0. 9.
      -24     2     1     2     0     0  6.5498042089e+01  1.4020752250e+01  1.6561659392e+01  1.0323419518e+02  7.6788250930e+01 0. 9.
       24     2     1     2     0     0 -6.5498042089e+01 -1.4020752250e+01  1.3661557011e+02  1.7776985704e+02  9.1933307692e+01 0. 9.
        3     1     3     0   102     0  3.4392354156e+01 -3.1426319519e+01  1.0917034419e+01  4.7852682510e+01  5.0000000000e-01 0. 9.
       -4     1     3     0     0   102  3.1105687933e+01  4.5447071769e+01  5.6446249737e+00  5.5381512667e+01  1.5000000000e+00 0. 9.
       -3     1     4     0     0   103 -3.3309067540e+01 -1.8558724531e+01  8.3349489002e-01  3.8142691965e+01  5.0000000000e-01 0. 9.
        4     1     4     0   103     0 -3.2188974549e+01  4.5379722815e+00  1.3578207522e+02  1.3962716507e+02  1.5000000000e+00 0. 9.
#pdf    2   -2  2.215211e-01  6.521777e-02  1.018971e+02  4.614656e-01  5.764489e-01
</event>
<event>
     8  9999  1.000000e+00  9.214794e+01  7.818438e-03  1.262959e-01
        2    -1     0     0   101     0  0.0000000000e+00  0.0000000000e+00  1.1016091061e+02  1.1016091061e+02  0.0000000000e+00 0. 9.
       -2    -1     0     0     0   101  0.0000000000e+00  0.0000000000e+00 -8.0900163082e+01  8.0900163082e+01  0.0000000000e+00 0. 9.
      -24     2     1     2     0     0 -1.2094068883e+01  4.4261595574e+01 -6.1026244328e+00  9.2511259437e+01  8.0098288077e+01 0. 9.
       24     2     1     2     0     0  1.2094068883e+01 -4.4261595574e+01  3.5363371959e+01  9.8549814252e+01  7.9725419209e+01 0. 9.
        3     1     3     0   102     0  5.2501777969e+00 -1.0298789744e+01  2.4849875625e+01  2.7411598926e+01  5.0000000000e-01 0. 9.
       -4     1     3     0     0   102 -1.7344246680e+01  5.4560385318e+01 -3.0952500058e+01  6.5099660512e+01  1.5000000000e+00 0. 9.
       -3     1     4     0     0   103  1.8867324865e+01  4.2827032094e+00 -1.7749972150e+01  2.6260788367e+01  5.0000000000e-01 0. 9.
        4     1     4     0   103     0 -6.7732559825e+00 -4.8544298783e+01  5.3113344109e+01  7.2289025885e+01  1.5000000000e+00 0. 9.
#pdf    2   -2  1.124091e-01  8.255119e-02  9.198640e+01  5.627198e-01  5.726165e-01
</event>
<event>
     8  9999  1.000000e+00  8.893960e+01  7.815298e-03  1.269894e-01
        1    -1     0     0   101     0  0.0000000000e+00  0.0000000000e+00  2.3735857957e+01  2.3735857957e+01  0.0000000000e+00 0. 9.
       -2    -1     0     0     0   101  0.0000000000e+00  0.0000000000e+00 -4.3862270320e+02  4.3862270320e+02  0.0000000000e+00 0. 9.
       23     2     1     2     0     0  2.5826519170e+01 -8.9698035839e+00 -1.0499566785e+02  1.4141433231e+02  9.0699816128e+01 0. 9.
      -24     2     1     2     0     0 -2.5826519170e+01  8.9698035839e+00 -3.0989117739e+02  3.2094422885e+02  7.8899871600e+01 0. 9.
       16     1     3     0     0     0 -8.5589976484e+00  3.5469147323e+01 -2.7489831712e+01  4.5683779398e+01  0.0000000000e+00 0. 9.
      -16     1     3     0     0     0  3.4385516818e+01 -4.4438950907e+01 -7.7505836141e+01  9.5730552910e+01  0.0000000000e+00 0. 9.
        3     1     4     0   102     0 -3.5673031294e+01 -2.7429806794e+01 -1.8985565786e+02  1.9511632501e+02  5.0000000000e-01 0. 9.
       -4     1     4     0     0   102  9.8465121235e+00  3.6399610378e+01 -1.2003551952e+02  1.2582790384e+02  1.5000000000e+00 0. 9.
#pdf    1   -2  2.422026e-02  4.475742e-01  8.350243e+01  4.969768e-01  1.754212e-01
</event>
<event>
     8  9999  1.000000e+00  9.733663e+01  7.823297e-03  1.252386e-01
        2    -1     0     0   101     0  0.0000000000e+00  0.0000000000e+00  2.9504600261e+02  2.9504600261e+02  0.0000000000e+00 0. 9.
       -1    -1     0     0     0   101  0.0000000000e+00  0.0000000000e+00 -9.7939844607e+01  9.7939844607e+01  0.0000000000e+00 0. 9.
       23     2     1     2     0     0 -1.7708799050e+01 -4.5127946900e+01 -6.1435070830e+01  1.1779521514e+02  8.8041533528e+01 0. 9.
       24     2     1     2     0     0  1.7708799050e+01  4.5127946900e+01  2.5854122883e+02  2.7519063208e+02  8.0846668596e+01 0. 9.
       13     1     3     0     0     0  1.6157872827e+01 -3.1412077723e+01  1.0720784814e+01  3.6915333836e+01  1.0566000000e-01  8.853674e+05 9.
      -13     1     3     0     0     0 -3.3866671877e+01 -1.3715869177e+01 -7.2155855645e+01  8.0879881300e+01  1.0566000000e-01  7.977696e+05 9.
      -11     1     4     0     0     0 -2.6781809771e+01  4.0958518764e+01  1.1901733646e+02  1.2868563235e+02  5.1100000000e-04 0. 9.
       12     1     4     0     0     0  4.4490608821e+01  4.1694281364e+00  1.3952389237e+02  1.4650499973e+02  0.0000000000e+00 0. 9.
#pdf    2   -1  3.010673e-01  9.993862e-02  9.426726e+01  3.557141e-01  3.426391e-01
</event>
<event>
     8  9999  1.000000e+00  8.904393e+01  7.815402e-03  1.269663e-01
        1    -1     0     0   101     0  0.0000000000e+00  0.0000000000e+00  7.8492411324e+01  7.8492411324e+01  0.0000000000e+00 0. 9.
       -1    -1     0     0     0   101  0.0000000000e+00  0.0000000000e+00 -1.4701673715e+02  1.4701673715e+02  0.0000000000e+00 0. 9.
      -24     2     1     2     0     0 -6.3437649511e+00 -1.2474369743e+01  2.5676049944e+01  1.0136609979e+02  9.7056547396e+01 0. 9.
       24     2     1     2     0     0  6.3437649511e+00  1.2474369743e+01 -9.4200375767e+01  1.2414304868e+02  7.9636251079e+01 0. 9.
       13     1     3     0     0     0  3.6340124045e+01  2.1193661089e+01  2.0377924879e+01  4.6744484941e+01  1.0566000000e-01  1.860460e+05 9.
      -14     1     3     0     0     0 -4.2683888996e+01 -3.3668030832e+01  5.2981250641e+00  5.4621614853e+01  0.0000000000e+00 0. 9.
       -1     1     4     0     0   102  1.6149580989e+01  4.0244819129e+01 -8.0977820316e+01  9.1858427572e+01  3.3000000000e-01 0. 9.
        2     1     4     0   102     0 -9.8058160378e+00 -2.7770449386e+01 -1.3222555451e+01  3.2284621105e+01  3.3000000000e-01 0. 9.
#pdf    1   -1  8.009430e-02  1.500171e-01  8.085658e+01  3.700894e-01  2.863248e-01
</event>
<event>
     8  9999  1.000000e+00  8.826212e+01  7.814621e-03  1.271400e-01
        1    -1     0     0   101     0  0.0000000000e+00  0.0000000000e+00  1.4409063528e+02  1.4409063528e+02  0.0000000000e+00 0. 9.
       -1    -1     0     0     0   101  0.0000000000e+00  0.0000000000e+00 -6.6753724678e+01  6.6753724678e+01  0.0000000000e+00 0. 9.
      -24     2     1     2     0     0 -2.8401142324e+01  5.8280832660e+00  8.5437704241e+01  1.2470733835e+02  8.6091390349e+01 0. 9.
       24     2     1     2     0     0  2.8401142324e+01 -5.8280832660e+00 -8.1007936368e+00  8.6137021611e+01  8.0705465705e+01 0. 9.
        1     1     3     0   102     0 -3.6185149221e+01  1.9847943805e+01  9.6679605951e+01  1.0512069732e+02  3.3000000000e-01 0. 9.
       -2     1     3     0     0   102  7.7840068970e+00 -1.4019860539e+01 -1.1241901710e+01  1.9586641033e+01  3.3000000000e-01 0. 9.
       -3     1     4     0     0   103  1.5965240127e+01  1.5307012235e+01 -4.0097745268e+01  4.5795989906e+01  5.0000000000e-01 0. 9.
        4     1     4     0   103     0  1.2435902197e+01 -2.1135095501e+01  3.1996951632e+01  4.0341031705e+01  1.5000000000e+00 0. 9.
#pdf    1   -1  1.470313e-01  6.811605e-02  8.575525e+01  2.886551e-01  3.866597e-01
</event>
<event>
     8  9999  1.000000e+00  8.553626e+01  7.811844e-03  1.277618e-01
        2    -1     0     0   101     0  0.0000000000e+00  0.0000000000e+00  1.9898606655e+02  1.9898606655e+02  0.0000000000e+00 0. 9.
       -2    -1     0     0     0   101  0.0000000000e+00  0.0000000000e+00 -3.7184069999e+01  3.7184069999e+01  0.0000000000e+00 0. 9.
      -24     2     1     2     0     0 -8.3190247639e+00  2.8134095799e+01  6.8270586124e+01  1.0931465121e+02  8.0175348582e+01 0. 9.
       24     2     1     2     0     0  8.3190247639e+00 -2.8134095799e+01  9.3531410430e+01  1.2685548534e+02  8.0519909988e+01 0. 9.
       11     1     3     0     0     0 -8.0832538791e+00 -1.2698889346e+01  6.6778070638e+01  6.8453717958e+01  5.1100000000e-04 0. 9.
      -12     1     3     0     0     0 -2.3577088477e-01  4.0832985145e+01  1.4925154858e+00  4.0860933253e+01  0.0000000000e+00 0. 9.
      -13     1     4     0     0     0  4.0911558467e+01 -7.3986757123e+00  2.5939505982e+01  4.9003725911e+01  1.0566000000e-01  9.996739e+05 9.
       14     1     4     0     0     0 -3.2592533704e+01 -2.0735420087e+01  6.7591904447e+01  7.7851759429e+01  0.0000000000e+00 0. 9.
#pdf    2   -2  2.030470e-01  3.794293e-02  8.537459e+01  4.897053e-01  5.909157e-01
</event>
<event>
     8  9999  1.000000e+00  1.502702e+02  7.862026e-03  1.174448e-01
        1    -1     0     0   101     0  0.0000000000e+00  0.0000000000e+00  2.5109979895e+02  2.5109979895e+02  0.0000000000e+00 0. 9.
       -1    -1     0     0     0   101  0.0000000000e+00  0.0000000000e+00 -1.3299108768e+02  1.3299108768e+02  0.0000000000e+00 0. 9.
      -24     2     1     2     0     0  1.2336682972e+02 -3.7511950842e+01  1.6881592394e+02  2.2728668809e+02  8.0832550840e+01 0. 9.
       24     2     1     2     0     0 -1.2336682972e+02  3.7511950842e+01 -5.0707212679e+01  1.5680419854e+02  7.3415353499e+01 0. 9.
        1     1     3     0   102     0  1.2910817882e+02 -2.2177591566e+01  1.6461697391e+02  2.1037971482e+02  3.3000000000e-01 0. 9.
       -2     1     3     0     0   102 -5.7413491004e+00 -1.5334359276e+01  4.1989500282e+00  1.6906973273e+01  3.3000000000e-01 0. 9.
      -13     1     4     0     0     0 -9.1963143862e+01 -7.9626344716e+00 -2.3738684333e+01  9.5310858115e+01  1.0566000000e-01  1.651794e+06 9.
       14     1     4     0     0     0 -3.1403685859e+01  4.5474585313e+01 -2.6968528347e+01  6.1493340421e+01  0.0000000000e+00 0. 9.
#pdf    1   -1  2.562243e-01  1.357052e-01  1.483790e+02  1.667909e-01  2.927336e-01
</event>
<event>
     8  9999  1.000000e+00  9.304432e+01  7.819296e-03  1.261077e-01
        1    -1     0     0   101     0  0.0000000000e+00  0.0000000000e+00  2.8011664836e+02  2.8011664836e+02  0.0000000000e+00 0. 9.
       -2    -1     0     0     0   101  0.0000000000e+00  0.0000000000e+00 -6.1819768315e+01  6.1819768315e+01  0.0000000000e+00 0. 9.
       23     2     1     2     0     0 -2.8706892970e+01  2.3779077426e+01 -8.2636982356e+00  9.8962895647e+01  9.1300798348e+01 0. 9.
      -24     2     1     2     0     0  2.8706892970e+01 -2.3779077426e+01  2.2656057828e+02  2.4297352103e+02  7.9478966168e+01 0. 9.
        3     1     3     0   102     0 -4.8942117078e+01  1.0682459589e+01  2.6487141447e+01  5.6668019455e+01  5.0000000000e-01 0. 9.
       -3     1     3     0     0   102  2.0235224107e+01  1.3096617836e+01 -3.4750839683e+01  4.2294876192e+01  5.0000000000e-01 0. 9.
        1     1     4     0   103     0  4.5589479890e+01 -4.2630393391e+01  1.6524696915e+02  1.7664206982e+02  3.3000000000e-01 0. 9.
       -2     1     4     0     0   103 -1.6882586919e+01  1.8851315966e+01  6.1313609134e+01  6.6331451212e+01  3.3000000000e-01 0. 9.
#pdf    1   -2  2.858333e-01  6.308140e-02  8.778631e+01  1.498147e-01  5.775023e-01
</event>
<event>
     8  9999  1.000000e+00  9.508015e+01  7.821216e-03  1.256891e-01
        1    -1     0     0   101     0  0.0000000000e+00  0.0000000000e+00  2.6102712605e+02  2.6102712605e+02  0.0000000000e+00 0. 9.
       -1    -1     0     0     0   101  0.0000000000e+00  0.0000000000e+00 -5.2182113342e+01  5.2182113342e+01  0.0000000000e+00 0. 9.
      -24     2     1     2     0     0  1.2760593500e+01 -4.8937728893e+01  1.9484786385e+02  2.1657628182e+02  7.9886555480e+01 0. 9.
       24     2     1     2     0     0 -1.2760593500e+01  4.8937728893e+01  1.3997148863e+01  9.6632957571e+01  8.1143541068e+01 0. 9.
        3     1     3     0   102     0  7.8403836588e+00 -7.0593490669e+01  1.6211281982e+02  1.7699075933e+02  5.0000000000e-01 0. 9.
       -4     1     3     0     0   102  4.9202098411e+00  2.1655761776e+01  3.2735044031e+01  3.9585522489e+01  1.5000000000e+00 0. 9.
      -11     1     4     0     0     0 -2.1141901858e+01  2.2848128271e+01 -3.1010574817e+01  4.3939421143e+01  5.1100000000e-04 0. 9.
       12     1     4     0     0     0  8.3813083585e+00  2.6089600623e+01  4.5007723680e+01  5.2693536428e+01  0.0000000000e+00 0. 9.
#pdf    1   -1  2.663542e-01  5.324705e-02  9.454944e+01  1.652337e-01  4.112444e-01
</event>
<event>
     8  9999  1.000000e+00  9.079496e+01  7.817127e-03  1.265844e-01
        1    -1     0     0   101     0  0.0000000000e+00  0.0000000000e+00  5.4171135705e+01  5.4171135705e+01  0.0000000000e+00 0. 9.
       -1    -1     0     0     0   101  0.0000000000e+00  0.0000000000e+00 -1.5638172059e+02  1.5638172059e+02  0.0000000000e+00 0. 9.
      -24     2     1     2     0     0 -5.0785386328e+00 -4.6703262128e+01 -6.9606651916e+01  1.1671803264e+02  8.1061870837e+01 0. 9.
       24     2     1     2     0     0  5.0785386328e+00  4.6703262128e+01 -3.2603932971e+01  9.3834823662e+01  7.4397388653e+01 0. 9.
        1     1     3     0   102     0 -1.4933727874e+01  4.4644530402e+00 -6.2152961187e+01  6.4078444530e+01  3.3000000000e-01 0. 9.
       -2     1     3     0     0   102  9.8551892407e+00 -5.1167715168e+01 -7.4536907290e+00  5.2639588106e+01  3.3000000000e-01 0. 9.
       -1     1     4     0     0   103 -1.1945865260e+01  6.3170700931e+01 -2.4431575928e+01  6.8776827168e+01  3.3000000000e-01 0. 9.
        2     1     4     0   103     0  1.7024403893e+01 -1.6467438803e+01 -8.1723570438e+00  2.5057996494e+01  3.3000000000e-01 0. 9.
#pdf    1   -1  5.527667e-02  1.595732e-01  8.798840e+01  4.077073e-01  2.741622e-01
</event>
<event>
     8  9999  1.000000e+00  8.606837e+01  7.812393e-03  1.276384e-01
        1    -1     0     0   101     0  0.0000000000e+00  0.0000000000e+00  1.8858397671e+02  1.8858397671e+02  0.0000000000e+00 0. 9.
       -2    -1     0     0     0   101  0.0000000000e+00  0.0000000000e+00 -1.0662316484e+02  1.0662316484e+02  0.0000000000e+00 0. 9.
       23     2     1     2     0     0  9.7490356694e+00 -9.3442512167e+00  1.5877529227e+02  1.8220201333e+02  8.8349428410e+01 0. 9.
      -24     2     1     2     0     0 -9.7490356694e+00  9.3442512167e+00 -7.6814480400e+01  1.1300512822e+02  8.1776132691e+01 0. 9.
       11     1     3     0     0     0  2.8445415272e+01  2.3095587099e+01  1.2975832653e+02  1.3483238149e+02  5.1100000000e-04 0. 9.
      -11     1     3     0     0     0 -1.8696379602e+01 -3.2439838316e+01  2.9016965734e+01  4.7369631842e+01  5.1100000000e-04 0. 9.
       15     1     4     0     0     0  2.9314102820e+01  9.9840762060e-01 -6.5025975138e+01  7.1357190093e+01  1.7769900000e+00  7.053000e-02 9.
      -16     1     4     0     0     0 -3.9063138490e+01  8.3458435961e+00 -1.1788505262e+01  4.1647938128e+01  0.0000000000e+00 0. 9.
#pdf    1   -2  1.924326e-01  1.087991e-01  8.288362e+01  2.396563e-01  5.659555e-01
</event>
<event>
     8  9999  1.000000e+00  8.381335e+01  7.810044e-03  1.281683e-01
        2    -1     0     0   101     0  0.0000000000e+00  0.0000000000e+00  2.4323500505e+02  2.4323500505e+02  0.0000000000e+00 0. 9.
       -1    -1     0     0     0   101  0.0000000000e+00  0.0000000000e+00 -2.2112938777e+02  2.2112938777e+02  0.0000000000e+00 0. 9.
       23     2     1     2     0     0  5.9001411385e-01 -4.0477788464e-03 -2.0515371961e+02  2.2418541050e+02  9.0391932599e+01 0. 9.
       24     2     1     2     0     0 -5.9001411385e-01  4.0477788464e-03  2.2725933689e+02  2.4017898231e+02  7.7709646804e+01 0. 9.
        2     1     3     0   102     0  4.1698449488e+01  1.8119562642e+01 -1.0330258624e+02  1.1286546179e+02  3.3000000000e-01 0. 9.
       -2     1     3     0     0   102 -4.1108435374e+01 -1.8123610421e+01 -1.0185113337e+02  1.1131994871e+02  3.3000000000e-01 0. 9.
       -3     1     4     0     0   103 -3.1150117165e+01 -1.7544099542e+01  1.6300380859e+02  1.6687904855e+02  5.0000000000e-01 0. 9.
        4     1     4     0   103     0  3.0560103051e+01  1.7548147321e+01  6.4255528304e+01  7.3299933769e+01  1.5000000000e+00 0. 9.
#pdf    2   -1  2.481990e-01  2.256422e-01  7.771189e+01  4.359361e-01  2.069156e-01
</event>
<event>
     8  9999  1.000000e+00  1.018722e+02  7.827340e-03  1.243730e-01
        1    -1     0     0   101     0  0.0000000000e+00  0.0000000000e+00  1.3381348836e+02  1.3381348836e+02  0.0000000000e+00 0. 9.
       -2    -1     0     0     0   101  0.0000000000e+00  0.0000000000e+00 -1.1860902347e+02  1.1860902347e+02  0.0000000000e+00 0. 9.
       23     2     1     2     0     0  8.2285024611e+00  5.5175130751e+01  8.1900156848e+01  1.3407880582e+02  9.0318808524e+01 0. 9.
      -24     2     1     2     0     0 -8.2285024611e+00 -5.5175130751e+01 -6.6695691953e+01  1.1834370601e+02  8.0280222474e+01 0. 9.
       11     1     3     0     0     0 -3.7984587149e+01  7.8170729070e+00  2.0763684181e+01  4.3989385887e+01  5.1100000000e-04 0. 9.
      -11     1     3     0     0     0  4.6213089610e+01  4.7358057844e+01  6.1136472667e+01  9.0089419937e+01  5.1100000000e-04 0. 9.
        1     1     4     0   102     0  1.6397538669e+01  1.0312073212e+01  2.9814984292e+00  1.9601437733e+01  3.3000000000e-01 0. 9.
       -2     1     4     0     0   102 -2.4626041130e+01 -6.5487203963e+01 -6.9677190383e+01  9.8742268276e+01  3.3000000000e-01 0. 9.
#pdf    1   -2  1.365444e-01  1.210296e-01  9.775949e+01  2.984048e-01  5.574187e-01
</event>
<event>
     8  9999  1.000000e+00  8.133578e+01  7.807391e-03  1.287726e-01
        2    -1     0     0   101     0  0.0000000000e+00  0.0000000000e+00  4.8223497856e+01  4.8223497856e+01  0.0000000000e+00 0. 9.
       -2    -1     0     0     0   101  0.0000000000e+00  0.0000000000e+00 -1.6488630397e+02  1.6488630397e+02  0.0000000000e+00 0. 9.
      -24     2     1     2     0     0  4.4860753004e+00  3.0970672874e+00 -1.0224505120e+02  1.3090343851e+02  8.1559444707e+01 0. 9.
       24     2     1     2     0     0 -4.4860753004e+00 -3.0970672874e+00 -1.4417754911e+01  8.2206363315e+01  8.0748361069e+01 0. 9.
       11     1     3     0     0     0 -4.0979420652e+00 -2.1401072657e+01 -1.0265457191e+02  1.0494169893e+02  5.1100000000e-04 0. 9.
      -12     1     3     0     0     0  8.5840173657e+00  2.4498139944e+01  4.0952070757e-01  2.5961739581e+01  0.0000000000e+00 0. 9.
       -3     1     4     0     0   102  3.9444457549e+00  2.6352151593e+01 -3.5937316591e+01  4.4740756248e+01  5.0000000000e-01 0. 9.
        4     1     4     0   102     0 -8.4305210554e+00 -2.9449218881e+01  2.1519561680e+01  3.7465607066e+01  1.5000000000e+00 0. 9.
#pdf    2   -2  4.920765e-02  1.682513e-01  8.093216e+01  5.822875e-01  5.276463e-01
</event>
<event>
     8  9999  1.000000e+00  9.422727e+01  7.820416e-03  1.258630e-01
       -1    -1     0     0     0   101  0.0000000000e+00  0.0000000000e+00  6.4817838583e+01  6.4817838583e+01  0.0000000000e+00 0. 9.
        2    -1     0     0   101     0  0.0000000000e+00  0.0000000000e+00 -2.2596714166e+02  2.2596714166e+02  0.0000000000e+00 0. 9.
       23     2     1     2     0     0  3.5887318789e+01 -1.9193864208e+01 -1.7396499909e+02  2.0012845149e+02  9.0173566608e+01 0. 9.
       24     2     1     2     0     0 -3.5887318789e+01  1.9193864208e+01  1.2815696009e+01  9.0656528754e+01  7.9987874509e+01 0. 9.
       11     1     3     0     0     0  3.2469464156e+01  1.4415596981e+00 -1.7612676388e+02  1.7910047781e+02  5.1100000000e-04 0. 9.
      -11     1     3     0     0     0  3.4178546329e+00 -2.0635423906e+01  2.1617647850e+00  2.1027973686e+01  5.1100000000e-04 0. 9.
      -13     1     4     0     0     0  2.1537249611e+01  2.2634925021e+01  1.0920459823e+01  3.3097742495e+01  1.0566000000e-01  4.363287e+05 9.
       14     1     4     0     0     0 -5.7424568400e+01 -3.4410608130e+00  1.8952361869e+00  5.7558786259e+01  0.0000000000e+00 0. 9.
#pdf   -1    2  6.614065e-02  2.305787e-01  8.974611e+01  1.730847e-01  2.189127e-02
</event>
<event>
     8  9999  1.000000e+00  8.424532e+01  7.810499e-03  1.280654e-01
        2    -1     0     0   101     0  0.0000000000e+00  0.0000000000e+00  9.2536469024e+01  9.2536469024e+01  0.0000000000e+00 0. 9.
       -1    -1     0     0     0   101  0.0000000000e+00  0.0000000000e+00 -2.0605247956e+02  2.0605247956e+02  0.0000000000e+00 0. 9.
       23     2     1     2     0     0  3.7408173068e+00  5.1706070800e+00  6.0791626607e+01  1.0613720109e+02  8.6768396885e+01 0. 9.
       24     2     1     2     0     0 -3.7408173068e+00 -5.1706070800e+00 -1.7430763715e+02  1.9245174750e+02  8.1325235047e+01 0. 9.
       15     1     3     0     0     0  2.3113558070e+01  3.1522688984e+01  2.4204337745e+00  3.9203732993e+01  1.7769900000e+00  6.173393e-02 9.
      -15     1     3     0     0     0 -1.9372740763e+01 -2.6352081904e+01  5.8371192833e+01  6.6933468097e+01  1.7769900000e+00  6.542740e-03 9.
       -1     1     4     0     0   102  1.5039281990e+01 -2.5630456642e+01 -1.5686331731e+02  1.5965371755e+02  3.3000000000e-01 0. 9.
        2     1     4     0   102     0 -1.8780099297e+01  2.0459849562e+01 -1.7444319834e+01  3.2798029943e+01  3.3000000000e-01 0. 9.
#pdf    2   -1  9.442497e-02  2.102576e-01  8.157526e+01  5.708862e-01  2.214513e-01
</event>
<event>
     8  9999  1.000000e+00  1.097121e+02  7.833933e-03  1.229892e-01
        3    -1     0     0   101     0  0.0000000000e+00  0.0000000000e+00  3.0555943856e+01  3.0555943856e+01  0.0000000000e+00 0. 9.
       -2    -1     0     0     0   101  0.0000000000e+00  0.0000000000e+00 -7.2218494519e+02  7.2218494519e+02  0.0000000000e+00 0. 9.
       23     2     1     2     0     0  3.6042824867e+01  5.9410816000e+01 -9.9776244026e+01  1.5155666462e+02  9.0473164179e+01 0. 9.
      -24     2     1     2     0     0 -3.6042824867e+01 -5.9410816000e+01 -5.9185275731e+02  6.0118422443e+02  7.9398079844e+01 0. 9.
       15     1     3     0     0     0  5.1553295212e+01  7.5207013320e+01 -7.3335505652e+01  1.1702602780e+02  1.7769900000e+00  3.264408e-04 9.
      -15     1     3     0     0     0 -1.5510470345e+01 -1.5796197320e+01 -2.6440738374e+01  3.4530636821e+01  1.7769900000e+00  1.153985e-01 9.
       15     1     4     0     0     0 -1.5204197559e+01 -1.4371951737e+01 -4.5713133258e+02  4.5761330132e+02  1.7769900000e+00  5.010516e-02 9.
      -16     1     4     0     0     0 -2.0838627307e+01 -4.5038864263e+01 -1.3472142473e+02  1.4357092311e+02  0.0000000000e+00 0. 9.
#pdf    3   -2  3.117953e-02  7.369234e-01  1.055120e+02  1.842415e-01  1.114626e-02
</event>
<event>
     8  9999  1.000000e+00  1.058409e+02  7.830737e-03  1.236558e-01
        1    -1     0     0   101     0  0.0000000000e+00  0.0000000000e+00  1.0368469865e+02  1.0368469865e+02  0.0000000000e+00 0. 9.
       -1    -1     0     0     0   101  0.0000000000e+00  0.0000000000e+00 -2.0073910553e+02  2.0073910553e+02  0.0000000000e+00 0. 9.
      -24     2     1     2     0     0  6.1467826922e+01 -3.4435028272e+01  5.4740498021e+01  1.1974928100e+02  7.9870540610e+01 0. 9.
       24     2     1     2     0     0 -6.1467826922e+01  3.4435028272e+01 -1.5179490490e+02  1.8467452319e+02  7.8095591694e+01 0. 9.
       11     1     3     0     0     0  7.8099996345e+01 -2.7177349823e+01  2.7749723129e+01  8.7225368480e+01  5.1100000000e-04 0. 9.
      -12     1     3     0     0     0 -1.6632169423e+01 -7.2576784498e+00  2.6990774892e+01  3.2523912518e+01  0.0000000000e+00 0. 9.
       -3     1     4     0     0   102 -7.2325513529e+01  4.5368569393e+01 -1.0469065611e+02  1.3509134122e+02  5.0000000000e-01 0. 9.
        4     1     4     0   102     0  1.0857686607e+01 -1.0933541121e+01 -4.7104248788e+01  4.9583181965e+01  1.5000000000e+00 0. 9.
#pdf    1   -1  1.058007e-01  2.048358e-01  1.051807e+02  3.338901e-01  2.223329e-01
</event>
<event>
     8  9999  1.000000e+00  9.238458e+01  7.818665e-03  1.262460e-01
        2    -1     0     0   101     0  0.0000000000e+00  0.0000000000e+00  8.0260399523e+01  8.0260399523e+01  0.0000000000e+00 0. 9.
       -1    -1     0     0     0   101  0.0000000000e+00  0.0000000000e+00 -1.0658132346e+02  1.0658132346e+02  0.0000000000e+00 0. 9.
       23     2     1     2     0     0  2.5941169386e+01  2.6552461195e+01 -1.2467971565e+01  9.7489459728e+01  8.9279151981e+01 0. 9.
       24     2     1     2     0     0 -2.5941169386e+01 -2.6552461195e+01 -1.3852952377e+01  8.9352263260e+01  8.0087110046e+01 0. 9.
        5     1     3     0   102     0 -1.3698435191e+01 -1.7066640953e+01  1.9995436888e+01  3.0029566371e+01  4.8000000000e+00 0. 9.
       -5     1     3     0     0   102  3.9639604577e+01  4.3619102149e+01 -3.2463408453e+01  6.7459893357e+01  4.8000000000e+00 0. 9.
       -3     1     4     0     0   103 -3.1114239646e+01  9.7850984623e+00 -3.4279914311e+01  4.7320255556e+01  5.0000000000e-01 0. 9.
        4     1     4     0   103     0  5.1730702594e+00 -3.6337559658e+01  2.0426961935e+01  4.2032007704e+01  1.5000000000e+00 0. 9.
#pdf    2   -1  8.189837e-02  1.087565e-01  8.827187e+01  5.731438e-01  3.327109e-01
</event>
<event>
     8  9999  1.000000e+00  1.213176e+02  7.842891e-03  1.211609e-01
        1    -1     0     0   101     0  0.0000000000e+00  0.0000000000e+00  1.8015328957e+02  1.8015328957e+02  0.0000000000e+00 0. 9.
       -1    -1     0     0     0   101  0.0000000000e+00  0.0000000000e+00 -8.1783016617e+01  8.1783016617e+01  0.0000000000e+00 0. 9.
      -24     2     1     2     0     0 -5.2912557237e+01 -7.6090952075e+01  5.2894951273e+01  1.3143931127e+02  7.6738810095e+01 0. 9.
       24     2     1     2     0     0  5.2912557237e+01  7.6090952075e+01  4.5475321675e+01  1.3049699492e+02  7.9824113524e+01 0. 9.
       15     1     3     0     0     0 -1.3577853225e+01 -7.9156252883e+01  4.1243267726e+01  9.0300804508e+01  1.7769900000e+00  5.693750e-02 9.
      -16     1     3     0     0     0 -3.9334704013e+01  3.0653008077e+00  1.1651683547e+01  4.1138506758e+01  0.0000000000e+00 0. 9.
       -1     1     4     0     0   102  5.1872726502e+01  2.1926719660e+01 -4.8862458450e+00  5.6529152552e+01  3.3000000000e-01 0. 9.
        2     1     4     0   102     0  1.0398307355e+00  5.4164232415e+01  5.0361567520e+01  7.3967842365e+01  3.3000000000e-01 0. 9.
#pdf    1   -1  1.838299e-01  8.345206e-02  1.203263e+02  2.420665e-01  3.614144e-01
</event>
<event>
     8  9999  1.000000e+00  8.079498e+01  7.806802e-03  1.289078e-01
        1    -1     0     0   101     0  0.0000000000e+00  0.0000000000e+00  2.7012599082e+01  2.7012599082e+01  0.0000000000e+00 0. 9.
       -1    -1     0     0     0   101  0.0000000000e+00  0.0000000000e+00 -2.6651474486e+02  2.6651474486e+02  0.0000000000e+00 0. 9.
      -24     2     1     2     0     0 -6.2077962197e-01  1.2280526020e+01 -7.4487103635e+01  1.0964733413e+02  7.9517372861e+01 0. 9.
       24     2     1     2     0     0  6.2077962197e-01 -1.2280526020e+01 -1.6501504214e+02  1.8388000981e+02  8.0191627926e+01 0. 9.
       15     1     3     0     0     0 -1.0755411948e+01  3.9447593594e+01 -1.5214888778e+01  4.3662822407e+01  1.7769900000e+00  1.024103e-01 9.
      -16     1     3     0     0     0  1.0134632326e+01 -2.7167067574e+01 -5.9272214858e+01  6.5984511721e+01  0.0000000000e+00 0. 9.
      -15     1     4     0     0     0  1.7710188186e+01 -3.5415602222e+01 -1.4082749486e+02  1.4629920248e+02  1.7769900000e+00  1.504306e-02 9.
       16     1     4     0     0     0 -1.7089408564e+01  2.3135076201e+01 -2.4187547285e+01  3.7580807330e+01  0.0000000000e+00 0. 9.
#pdf    1   -1  2.756388e-02  2.719538e-01  8.046247e+01  4.809439e-01  1.631277e-01
</event>
<event>
     8  9999  1.000000e+00  9.011986e+01  7.816466e-03  1.267305e-01
        1    -1     0     0   101     0  0.0000000000e+00  0.0000000000e+00  1.0075999471e+02  1.0075999471e+02  0.0000000000e+00 0. 9.
       -2    -1     0     0     0   101  0.0000000000e+00  0.0000000000e+00 -5.1418850556e+02  5.1418850556e+02  0.0000000000e+00 0. 9.
       23     2     1     2     0     0 -5.5801248865e+00  2.2188276204e+01 -4.9066472317e+02  4.9979331323e+02  9.2293163286e+01 0. 9.
      -24     2     1     2     0     0  5.5801248865e+00 -2.2188276204e+01  7.7236212321e+01  1.1515518704e+02  8.2291112608e+01 0. 9.
        5     1     3     0   102     0 -3.4833480554e+01 -1.8153956566e+01 -3.0270619946e+02  3.0528187090e+02  4.8000000000e+00 0. 9.
       -5     1     3     0     0   102  2.9253355668e+01  4.0342232771e+01 -1.8795852371e+02  1.9451144233e+02  4.8000000000e+00 0. 9.
        3     1     4     0   103     0 -2.6688905242e+01 -2.8797560189e+01  7.1661422011e+01  8.1714175885e+01  5.0000000000e-01 0. 9.
       -4     1     4     0     0   103  3.2269030128e+01  6.6092839845e+00  5.5747903099e+00  3.3441011157e+01  1.5000000000e+00 0. 9.
#pdf    1   -2  1.028163e-01  5.246821e-01  8.541244e+01  3.403895e-01  1.052785e-01
</event>
<event>
     8  9999  1.000000e+00  9.165792e+01  7.817966e-03  1.263997e-01
        2    -1     0     0   101     0  0.0000000000e+00  0.0000000000e+00  3.0793073418e+02  3.0793073418e+02  0.0000000000e+00 0. 9.
       -1    -1     0     0     0   101  0.0000000000e+00  0.0000000000e+00 -3.9902314557e+01  3.9902314557e+01  0.0000000000e+00 0. 9.
       23     2     1     2     0     0  4.3470096746e+00  2.6266919420e+01  4.7497632688e+01  1.1238089220e+02  9.8308658173e+01 0. 9.
       24     2     1     2     0     0 -4.3470096746e+00 -2.6266919420e+01  2.2053078694e+02  2.3545215654e+02  7.8070753056e+01 0. 9.
       12     1     3     0     0     0 -4.5907481358e+01  1.5003211178e+01  3.4233149963e+01  5.9198832309e+01  0.0000000000e+00 0. 9.
      -12     1     3     0     0     0  5.0254491033e+01  1.1263708242e+01  1.3264482725e+01  5.3182059892e+01  0.0000000000e+00 0. 9.
       -3     1     4     0     0   102  1.4562468462e+01  2.1377715525e+01  3.8876153994e+01  4.6697725407e+01  5.0000000000e-01 0. 9.
        4     1     4     0   102     0 -1.8909478136e+01 -4.7644634945e+01  1.8165463294e+02  1.8875443113e+02  1.5000000000e+00 0. 9.
#pdf    2   -1  3.142150e-01  4.071665e-02  8.248570e+01  3.421052e-01  4.386396e-01
</event>
<event>
     8  9999  1.000000e+00  1.602426e+02  7.867789e-03  1.163733e-01
        1    -1     0     0   101     0  0.0000000000e+00  0.0000000000e+00  2.7110241368e+02  2.7110241368e+02  0.0000000000e+00 0. 9.
       -2    -1     0     0     0   101  0.0000000000e+00  0.0000000000e+00 -1.1209130380e+02  1.1209130380e+02  0.0000000000e+00 0. 9.
       23     2     1     2     0     0  5.1270831735e+01  1.2493004400e+02  1.5610137468e+02  2.2585949166e+02  9.1698727990e+01 0. 9.
      -24     2     1     2     0     0 -5.1270831735e+01 -1.2493004400e+02  2.9097351990e+00  1.5733422583e+02  8.0680716280e+01 0. 9.
        3     1     3     0   102     0  6.3676383968e+01  1.1765212342e+02  9.7558381462e+01  1.6557352389e+02  5.0000000000e-01 0. 9.
       -3     1     3     0     0   102 -1.2405552234e+01  7.2779205715e+00  5.8542993218e+01  6.0285967762e+01  5.0000000000e-01 0. 9.
        3     1     4     0   103     0  8.0138217164e+00 -7.2978624733e+01  2.1162492352e+01  7.6408128422e+01  5.0000000000e-01 0. 9.
       -4     1     4     0     0   103 -5.9284653451e+01 -5.1951419262e+01 -1.8252757153e+01  8.0926097409e+01  1.5000000000e+00 0. 9.
#pdf    1   -2  2.766351e-01  1.143789e-01  1.573073e+02  1.482299e-01  5.524724e-01
</event>
<event>
     8  9999  1.000000e+00  8.583744e+01  7.812155e-03  1.276918e-01
        2    -1     0     0   101     0  0.0000000000e+00  0.0000000000e+00  3.2166237905e+02  3.2166237905e+02  0.0000000000e+00 0. 9.
       -1    -1     0     0     0   101  0.0000000000e+00  0.0000000000e+00 -4.5862240070e+01  4.5862240070e+01  0.0000000000e+00 0. 9.
       23     2     1     2     0     0  7.7551612891e+00  5.8108723586e+00  1.2307434170e+01  9.1888016034e+01  9.0542949977e+01 0. 9.
       24     2     1     2     0     0 -7.7551612891e+00 -5.8108723586e+00  2.6349270481e+02  2.7563660309e+02  8.0331953226e+01 0. 9.
        2     1     3     0   102     0  2.6577334471e+00  1.9408200984e+01  4.8813421274e+01  5.2598486756e+01  3.3000000000e-01 0. 9.
       -2     1     3     0     0   102  5.0974278419e+00 -1.3597328625e+01 -3.6505987105e+01  3.9289529278e+01  3.3000000000e-01 0. 9.
       -1     1     4     0     0   103 -1.8440738400e+00  3.3784621958e+01  1.7860031597e+02  1.8177728971e+02  3.3000000000e-01 0. 9.
        2     1     4     0   103     0 -5.9110874491e+00 -3.9595494316e+01  8.4892388843e+01  9.3859313381e+01  3.3000000000e-01 0. 9.
#pdf    2   -1  3.282269e-01  4.679820e-02  8.091435e+01  3.233626e-01  4.245395e-01
</event>
<event>
     8  9999  1.000000e+00  1.358791e+02  7.853014e-03  1.191639e-01
        2    -1     0     0   101     0  0.0000000000e+00  0.0000000000e+00  3.7788289037e+02  3.7788289037e+02  0.0000000000e+00 0. 9.
       -1    -1     0     0     0   101  0.0000000000e+00  0.0000000000e+00 -3.1561047663e+02  3.1561047663e+02  0.0000000000e+00 0. 9.
       23     2     1     2     0     0  8.6579217920e+01  4.9370782811e+01 -2.8763882926e+02  3.1816570100e+02  9.2519630483e+01 0. 9.
       24     2     1     2     0     0 -8.6579217920e+01 -4.9370782811e+01  3.4991124300e+02  3.7532766600e+02  9.2192969975e+01 0. 9.
        3     1     3     0   102     0  1.5345707545e+00 -1.9017954699e+01 -1.4308726471e+01  2.3854290213e+01  5.0000000000e-01 0. 9.
       -3     1     3     0     0   102  8.5044647166e+01  6.8388737510e+01 -2.7333010279e+02  2.9431141079e+02  5.0000000000e-01 0. 9.
       -1     1     4     0     0   103 -4.0020046663e+01 -5.5450190401e+01  1.0065757198e+02  1.2168970149e+02  3.3000000000e-01 0. 9.
        2     1     4     0   103     0 -4.6559171257e+01  6.0794075897e+00  2.4925367102e+02  2.5363796451e+02  3.3000000000e-01 0. 9.
#pdf    2   -1  3.855948e-01  3.220515e-01  1.357681e+02  2.318577e-01  1.153173e-01
</event>
<event>
     8  9999  1.000000e+00  9.171140e+01  7.818017e-03  1.263883e-01
        1    -1     0     0   101     0  0.0000000000e+00  0.0000000000e+00  6.2186129300e+01  6.2186129300e+01  0.0000000000e+00 0. 9.
       -2    -1     0     0     0   101  0.0000000000e+00  0.0000000000e+00 -2.4524876148e+02  2.4524876148e+02  0.0000000000e+00 0. 9.
       23     2     1     2     0     0 -1.1385574417e+01  2.9059250923e+01 -1.9783593529e+02  2.2125033579e+02  9.4013735297e+01 0. 9.
      -24     2     1     2     0     0  1.1385574417e+01 -2.9059250923e+01  1.4773303113e+01  8.6184554991e+01  7.8964901476e+01 0. 9.
        3     1     3     0   102     0 -2.7388552208e+01  3.4437864938e+01 -1.9948427260e+02  2.0428001456e+02  5.0000000000e-01 0. 9.
       -3     1     3     0     0   102  1.6002977791e+01 -5.3786140143e+00  1.6483373035e+00  1.6970321234e+01  5.0000000000e-01 0. 9.
       15     1     4     0     0     0  3.3141239474e+01 -2.5411427246e+01  3.6300327147e+01  5.5362025189e+01  1.7769900000e+00  2.455547e-02 9.
      -16     1     4     0     0     0 -2.1755665057e+01 -3.6478236772e+00 -2.1527024034e+01  3.0822529802e+01  0.0000000000e+00 0. 9.
#pdf    1   -2  6.345523e-02  2.502538e-01  8.490893e+01  3.939726e-01  4.300019e-01
</event>
<event>
     8  9999  1.000000e+00  9.865457e+01  7.824490e-03  1.249817e-01
        2    -1     0     0   101     0  0.0000000000e+00  0.0000000000e+00  1.9943956995e+02  1.9943956995e+02  0.0000000000e+00 0. 9.
       -1    -1     0     0     0   101  0.0000000000e+00  0.0000000000e+00 -1.6374566557e+02  1.6374566557e+02  0.0000000000e+00 0. 9.
       23     2     1     2     0     0 -2.3552267431e+01  1.6649848645e+01  1.6953310416e+02  2.0477445094e+02  1.1117182911e+02 0. 9.
       24     2     1     2     0     0  2.3552267431e+01 -1.6649848645e+01 -1.3383919979e+02  1.5841078458e+02  7.9681356108e+01 0. 9.
        5     1     3     0   102     0 -2.0703385905e+01 -4.6577953086e+01  7.0001095933e+01  8.6725597913e+01  4.8000000000e+00 0. 9.
       -5     1     3     0     0   102 -2.8488815267e+00  6.3227801731e+01  9.9532008229e+01  1.1804885302e+02  4.8000000000e+00 0. 9.
       -3     1     4     0     0   103  1.8939623658e+01 -1.4767740564e+01 -1.4453452088e+02  1.4651714314e+02  5.0000000000e-01 0. 9.
        4     1     4     0   103     0  4.6126437736e+00 -1.8821080809e+00  1.0695321098e+01  1.1893641444e+01  1.5000000000e+00 0. 9.
#pdf    2   -1  2.035098e-01  1.670874e-01  8.474105e+01  4.894081e-01  2.665423e-01
</event>
<event>
     8  9999  1.000000e+00  9.157582e+01  7.817886e-03  1.264172e-01
        2    -1     0     0   101     0  0.0000000000e+00  0.0000000000e+00  6.6011636410e+01  6.6011636410e+01  0.0000000000e+00 0. 9.
       -1    -1     0     0     0   101  0.0000000000e+00  0.0000000000e+00 -1.5893387167e+02  1.5893387167e+02  0.0000000000e+00 0. 9.
       23     2     1     2     0     0 -2.9510922002e+01 -5.7837204089e+00  1.2508192221e+00  9.7252632781e+01  9.2477911389e+01 0. 9.
       24     2     1     2     0     0  2.9510922002e+01  5.7837204089e+00 -9.4173054480e+01  1.2769287530e+02  8.0824255471e+01 0. 9.
        2     1     3     0   102     0 -4.1281965695e+01 -4.1909549097e+01  5.1690300433e+00  5.9054540628e+01  3.3000000000e-01 0. 9.
       -2     1     3     0     0   102  1.1771043694e+01  3.6125828689e+01 -3.9182108212e+00  3.8198092153e+01  3.3000000000e-01 0. 9.
       -3     1     4     0     0   103  2.4346481048e+01 -1.2476519677e+00 -1.0830578714e+02  1.1101667128e+02  5.0000000000e-01 0. 9.
        4     1     4     0   103     0  5.1644409534e+00  7.0313723766e+00  1.4132732660e+01  1.6676204014e+01  1.5000000000e+00 0. 9.
#pdf    2   -1  6.735881e-02  1.621774e-01  8.623750e+01  5.765088e-01  2.716358e-01
</event>
<event>
     8  9999  1.000000e+00  8.170816e+01  7.807795e-03  1.286803e-01
        2    -1     0     0   101     0  0.0000000000e+00  0.0000000000e+00  1.2120726407e+02  1.2120726407e+02  0.0000000000e+00 0. 9.
       -2    -1     0     0     0   101  0.0000000000e+00  0.0000000000e+00 -6.7013974844e+01  6.7013974844e+01  0.0000000000e+00 0. 9.
      -24     2     1     2     0     0 -4.2400212944e+00  4.4978327108e+00 -1.3076495371e+01  8.0890402744e+01  7.9586771798e+01 0. 9.
       24     2     1     2     0     0  4.2400212944e+00 -4.4978327108e+00  6.7269784592e+01  1.0733083617e+02  8.3405492585e+01 0. 9.
       11     1     3     0     0     0 -1.7041349831e+01 -2.6553822197e+01  1.6969412985e+01  3.5825606131e+01  5.1100000000e-04 0. 9.
      -12     1     3     0     0     0  1.2801328537e+01  3.1051654908e+01 -3.0045908356e+01  4.5064796613e+01  0.0000000000e+00 0. 9.
       -3     1     4     0     0   102 -8.0430407183e+00 -1.9596097958e+01 -1.2908150919e+01  2.4810641252e+01  5.0000000000e-01 0. 9.
        4     1     4     0   102     0  1.2283062013e+01  1.5098265247e+01  8.0177935511e+01  8.2520194914e+01  1.5000000000e+00 0. 9.
#pdf    2   -2  1.236809e-01  6.838161e-02  7.982645e+01  5.599617e-01  5.766062e-01
</event>
<event>
     8  9999  1.000000e+00  9.082108e+01  7.817153e-03  1.265788e-01
        1    -1     0     0   101     0  0.0000000000e+00  0.0000000000e+00  3.8497423002e+01  3.8497423002e+01  0.0000000000e+00 0. 9.
       -1    -1     0     0     0   101  0.0000000000e+00  0.0000000000e+00 -2.1567171921e+02  2.1567171921e+02  0.0000000000e+00 0. 9.
      -24     2     1     2     0     0  3.4799192691e+01  2.4950917200e+01 -9.8532750736e+01  1.3377805400e+02  7.9714068295e+01 0. 9.
       24     2     1     2     0     0 -3.4799192691e+01 -2.4950917200e+01 -7.8641545473e+01  1.2039108821e+02  8.0473532076e+01 0. 9.
        3     1     3     0   102     0 -4.1373043003e+00 -1.7488354330e+01  1.8124260411e+00  1.8069164679e+01  5.0000000000e-01 0. 9.
       -4     1     3     0     0   102  3.8936496991e+01  4.2439271531e+01 -1.0034517678e+02  1.1570888932e+02  1.5000000000e+00 0. 9.
       -1     1     4     0     0   103 -6.0435943214e+01 -2.5282752731e+01 -5.6044493277e+01  8.6213774679e+01  3.3000000000e-01 0. 9.
        2     1     4     0   103     0  2.5636750523e+01  3.3183553078e-01 -2.2597052196e+01  3.4177313530e+01  3.3000000000e-01 0. 9.
#pdf    1   -1  3.928308e-02  2.200732e-01  9.048682e+01  4.426085e-01  2.096088e-01
</event>
<event>
     8  9999  1.000000e+00  7.880600e+01  7.804599e-03  1.294151e-01
        2    -1     0     0   101     0  0.0000000000e+00  0.0000000000e+00  1.0245847376e+02  1.0245847376e+02  0.0000000000e+00 0. 9.
       -2    -1     0     0     0   101  0.0000000000e+00  0.0000000000e+00 -8.5346098182e+01  8.5346098182e+01  0.0000000000e+00 0. 9.
      -24     2     1     2     0     0  2.7494980595e+00  4.7149063158e+00 -4.2010659270e+01  8.9099203694e+01  7.8383560301e+01 0. 9.
       24     2     1     2     0     0 -2.7494980595e+00 -4.7149063158e+00  5.9123034849e+01  9.8705368249e+01  7.8850658782e+01 0. 9.
       15     1     3     0     0     0  1.2826849273e+01 -3.1299006838e+01 -1.4121627789e+00  3.3901442277e+01  1.7769900000e+00  1.243834e-02 9.
      -16     1     3     0     0     0 -1.0077351213e+01  3.6013913154e+01 -4.0598496491e+01  5.5197761417e+01  0.0000000000e+00 0. 9.
       -1     1     4     0     0   102 -2.8716479994e+01  1.2780745862e+01 -4.1341127439e-01  3.1436658488e+01  3.3000000000e-01 0. 9.
        2     1     4     0   102     0  2.5966981934e+01 -1.7495652178e+01  5.9536446123e+01  6.7268709761e+01  3.3000000000e-01 0. 9.
#pdf    2   -2  1.045495e-01  8.708786e-02  7.857336e+01  5.683339e-01  5.731016e-01
</event>
<event>
     8  9999  1.000000e+00  9.725906e+01  7.823226e-03  1.252539e-01
        1    -1     0     0   101     0  0.0000000000e+00  0.0000000000e+00  1.2676480550e+02  1.2676480550e+02  0.0000000000e+00 0. 9.
       -1    -1     0     0     0   101  0.0000000000e+00  0.0000000000e+00 -8.4792112613e+01  8.4792112613e+01  0.0000000000e+00 0. 9.
      -24     2     1     2     0     0  4.8763569534e+01  5.9791846053e+00 -1.6085469255e+01  9.5567350174e+01  8.0378726886e+01 0. 9.
       24     2     1     2     0     0 -4.8763569534e+01 -5.9791846053e+00  5.8058162142e+01  1.1598956794e+02  8.7573930581e+01 0. 9.
       11     1     3     0     0     0  6.1917952217e+01  8.2653245806e+00  1.2782249459e+01  6.3761542474e+01  5.1100000000e-04 0. 9.
      -12     1     3     0     0     0 -1.3154382683e+01 -2.2861399753e+00 -2.8867718713e+01  3.1805807700e+01  0.0000000000e+00 0. 9.
       -3     1     4     0     0   102 -5.0108776084e+01 -1.8264400395e+01 -3.2618901564e+00  5.3435640633e+01  5.0000000000e-01 0. 9.
        2     1     4     0   102     0  1.3452065508e+00  1.2285215790e+01  6.1320052298e+01  6.2553927307e+01  3.3000000000e-01 0. 9.
#pdf    1   -1  1.293518e-01  8.652256e-02  9.420391e+01  3.073375e-01  3.598762e-01
</event>
<event>
     8  9999  1.000000e+00  9.261916e+01  7.818890e-03  1.261967e-01
        2    -1     0     0   101     0  0.0000000000e+00  0.0000000000e+00  1.3634759284e+02  1.3634759284e+02  0.0000000000e+00 0. 9.
       -1    -1     0     0     0   101  0.0000000000e+00  0.0000000000e+00 -9.8151493855e+01  9.8151493855e+01  0.0000000000e+00 0. 9.
       23     2     1     2     0     0  3.1767249482e+00  3.6183201289e+01 -5.0220218047e+01  1.0999397429e+02  9.0869623322e+01 0. 9.
       24     2     1     2     0     0 -3.1767249482e+00 -3.6183201289e+01  8.8416317037e+01  1.2450511241e+02  7.9779460143e+01 0. 9.
       11     1     3     0     0     0 -2.8032950968e+01 -1.6768928065e+01 -3.2373907868e+01  4.5990359852e+01  5.1100000000e-04 0. 9.
      -11     1     3     0     0     0  3.1209675917e+01  5.2952129354e+01 -1.7846310179e+01  6.4003614438e+01  5.1100000000e-04 0. 9.
       -3     1     4     0     0   102 -4.1252870809e+00 -3.8220808830e+01  2.4795981491e+00  3.8525921509e+01  5.0000000000e-01 0. 9.
        4     1     4     0   102     0  9.4856213273e-01  2.0376075410e+00  8.5936718888e+01  8.5979190900e+01  1.5000000000e+00 0. 9.
#pdf    2   -1  1.391302e-01  1.001546e-01  8.765887e+01  5.487954e-01  3.433212e-01
</event>
<event>
     8  9999  1.000000e+00  1.008741e+02  7.826466e-03  1.245591e-01
        2    -1     0     0   101     0  0.0000000000e+00  0.0000000000e+00  9.2912100615e+01  9.2912100615e+01  0.0000000000e+00 0. 9.
       -2    -1     0     0     0   101  0.0000000000e+00  0.0000000000e+00 -1.3197443543e+02  1.3197443543e+02  0.0000000000e+00 0. 9.
      -24     2     1     2     0     0  6.1382855671e+01  9.0290831915e-01 -6.5888719577e+01  1.2035676584e+02  7.9848340631e+01 0. 9.
       24     2     1     2     0     0 -6.1382855671e+01 -9.0290831915e-01  2.6826384766e+01  1.0452977020e+02  8.0238069053e+01 0. 9.
        3     1     3     0   102     0  3.5436862946e+01 -2.7972385722e+01 -1.5221853384e+00  4.5175133277e+01  5.0000000000e-01 0. 9.
       -4     1     3     0     0   102  2.5945992725e+01  2.8875294041e+01 -6.4366534238e+01  7.5181632560e+01  1.5000000000e+00 0. 9.
       -3     1     4     0     0   103 -3.2313046864e+01  3.8372588441e+01  2.3861496795e+01  5.5553663881e+01  5.0000000000e-01 0. 9.
        4     1     4     0   103     0 -2.9069808807e+01 -3.9275496760e+01  2.9648879717e+00  4.8976106322e+01  1.5000000000e+00 0. 9.
#pdf    2   -2  9.480827e-02  1.346678e-01  1.007195e+02  5.681155e-01  5.486767e-01
</event>
<event>
     8  9999  1.000000e+00  1.737637e+02  7.875067e-03  1.150499e-01
        2    -1     0     0   101     0  0.0000000000e+00  0.0000000000e+00  4.8774332631e+02  4.8774332631e+02  0.0000000000e+00 0. 9.
       -2    -1     0     0     0   101  0.0000000000e+00  0.0000000000e+00 -1.5400235429e+02  1.5400235429e+02  0.0000000000e+00 0. 9.
      -24     2     1     2     0     0 -1.2023919763e+02  8.5078002979e+01 -7.8769097439e+01  1.9640517360e+02  1.0331839270e+02 0. 9.
       24     2     1     2     0     0  1.2023919763e+02 -8.5078002979e+01  4.1251006946e+02  4.4534050699e+02  8.0423121864e+01 0. 9.
       15     1     3     0     0     0 -7.4111007226e-01  4.0623217329e+01 -5.2190974744e+01  6.6165327540e+01  1.7769900000e+00  4.069778e-02 9.
      -16     1     3     0     0     0 -1.1949808755e+02  4.4454785650e+01 -2.6578122695e+01  1.3023984606e+02  0.0000000000e+00 0. 9.
       -1     1     4     0     0   102  5.6974380430e+01 -1.7718590772e+01  7.7438660201e+01  9.7759314022e+01  3.3000000000e-01 0. 9.
        2     1     4     0   102     0  6.3264817197e+01 -6.7359412207e+01  3.3507140925e+02  3.4758119297e+02  3.3000000000e-01 0. 9.
#pdf    2   -2  4.976973e-01  1.571453e-01  1.678202e+02  1.139611e-01  5.187791e-01
</event>
<event>
     8  9999  1.000000e+00  9.102896e+01  7.817355e-03  1.265341e-01
        1    -1     0     0   101     0  0.0000000000e+00  0.0000000000e+00  7.9875657126e+01  7.9875657126e+01  0.0000000000e+00 0. 9.
       -1    -1     0     0     0   101  0.0000000000e+00  0.0000000000e+00 -1.1834664800e+02  1.1834664800e+02  0.0000000000e+00 0. 9.
      -24     2     1     2     0     0 -3.8795279263e+00 -4.2973565114e+01  1.4927315686e+01  9.5074866320e+01  8.3394408785e+01 0. 9.
       24     2     1     2     0     0  3.8795279263e+00  4.2973565114e+01 -5.3398306561e+01  1.0314743881e+02  7.6982056048e+01 0. 9.
        3     1     3     0   102     0 -2.4970811507e+01 -1.9380009766e+01  4.2573096692e+01  5.3026830641e+01  5.0000000000e-01 0. 9.
       -4     1     3     0     0   102  2.1091283581e+01 -2.3593555347e+01 -2.7645781006e+01  4.2048035679e+01  1.5000000000e+00 0. 9.
       -3     1     4     0     0   103  2.9054513322e+01  5.3078525488e+01 -3.1309946754e+01  6.8132645465e+01  5.0000000000e-01 0. 9.
        4     1     4     0   103     0 -2.5174985396e+01 -1.0104960374e+01 -2.2088359807e+01  3.5014793342e+01  1.5000000000e+00 0. 9.
#pdf    1   -1  8.150577e-02  1.207619e-01  8.824973e+01  3.672967e-01  3.184132e-01
</event>
<event>
     8  9999  1.000000e+00  1.395425e+02  7.855393e-03  1.187048e-01
        2    -1     0     0   101     0  0.0000000000e+00  0.0000000000e+00  2.4010199145e+02  2.4010199145e+02  0.0000000000e+00 0. 9.
       -2    -1     0     0     0   101  0.0000000000e+00  0.0000000000e+00 -1.3796528187e+02  1.3796528187e+02  0.0000000000e+00 0. 9.
      -24     2     1     2     0     0 -1.0610006326e+02 -4.3586996093e+01 -7.0310730561e+01  1.5618159490e+02  7.9322393444e+01 0. 9.
       24     2     1     2     0     0  1.0610006326e+02  4.3586996093e+01  1.7244744014e+02  2.2188567843e+02  7.9612090968e+01 0. 9.
       13     1     3     0     0     0  3.6994146151e+00 -2.4204717923e+01 -2.2612997295e-01  2.4487064688e+01  1.0566000000e-01  3.991303e+05 9.
      -14     1     3     0     0     0 -1.0979947787e+02 -1.9382278169e+01 -7.0084600588e+01  1.3169453021e+02  0.0000000000e+00 0. 9.
       -3     1     4     0     0   102  6.1245994105e+01  3.5234847964e+01  3.8702778685e+01  8.0565013392e+01  5.0000000000e-01 0. 9.
        4     1     4     0   102     0  4.4854069150e+01  8.3521481282e+00  1.3374466146e+02  1.4132066503e+02  1.5000000000e+00 0. 9.
#pdf    2   -2  2.450020e-01  1.407809e-01  1.394600e+02  4.202640e-01  5.370997e-01
</event>
</LesHouchesEvents>
