<LesHouchesEvents version="1.0">
<!--
  File written by Pythia8::LHAup on 15 Sep 2009 at 09:06:38
-->
<init>
  2212  -2212  9.800000e+02  9.800000e+02  0  0  0  0  3  1
  1.248102e+01  5.407573e-01  1.000000e+00   9999
</init>
<event>
     8  9999  1.000000e+00  1.493841e+02  7.861496e-03  1.175444e-01
        2    -1     0     0   101     0  0.0000000000e+00  0.0000000000e+00  3.8720650185e+02  3.8720650185e+02  0.0000000000e+00 0. 9.
       -1    -1     0     0     0   101  0.0000000000e+00  0.0000000000e+00 -1.0201284644e+02  1.0201284644e+02  0.0000000000e+00 0. 9.
       23     2     1     2     0     0  1.1364782410e+02  4.6333247583e+01 -1.7236955412e+01  1.5308368581e+02  8.9860472256e+01 0. 9.
       24     2     1     2     0     0 -1.1364782410e+02 -4.6333247583e+01  3.0243061082e+02  3.3613566247e+02  8.0376062794e+01 0. 9.
        5     1     3     0   102     0  1.0538606754e+02  6.7337176917e+01 -1.5180585710e+00  1.2516334579e+02  4.8000000000e+00 0. 9.
       -5     1     3     0     0   102  8.2617565615e+00 -2.1003929334e+01 -1.5718896841e+01  2.7920340021e+01  4.8000000000e+00 0. 9.
       -1     1     4     0     0   103 -1.3977691717e+01 -2.8345558019e+01  2.3496741600e+01  3.9383401211e+01  3.3000000000e-01 0. 9.
        2     1     4     0   103     0 -9.9670132387e+01 -1.7987689564e+01  2.7893386922e+02  2.9675226126e+02  3.3000000000e-01 0. 9.
#pdf    2   -1  3.951087e-01  1.040947e-01  1.467069e+02  2.183510e-01  3.316026e-01
</event>
<event>
     8  9999  1.000000e+00  1.160682e+02  7.838948e-03  1.219584e-01
        1    -1     0     0   101     0  0.0000000000e+00  0.0000000000e+00  2.3805475348e+02  2.3805475348e+02  0.0000000000e+00 0. 9.
       -1    -1     0     0     0   101  0.0000000000e+00  0.0000000000e+00 -5.7661558360e+01  5.7661558360e+01  0.0000000000e+00 0. 9.
       23     2     1     2     0     0  4.4465861021e+01  5.3060889300e+01  6.8601636660e+01  1.3299944981e+02  9.0498609539e+01 0. 9.
       23     2     1     2     0     0 -4.4465861021e+01 -5.3060889300e+01  1.1179155846e+02  1.6271686202e+02  9.5847555392e+01 0. 9.
        4     1     3     0   102     0  1.5883638417e+01  5.1249128726e+01  8.4577018733e+01  1.0017127963e+02  1.5000000000e+00 0. 9.
       -4     1     3     0     0   102  2.8582222604e+01  1.8117605741e+00 -1.5975382073e+01  3.2828170185e+01  1.5000000000e+00 0. 9.
        5     1     4     0   103     0  1.0268138409e+01  4.8237520267e+00  7.2904734458e+01  7.3938106253e+01  4.8000000000e+00 0. 9.
       -5     1     4     0     0   103 -5.4733999431e+01 -5.7884641326e+01  3.8886823998e+01  8.8778755769e+01  4.8000000000e+00 0. 9.
#pdf    1   -1  2.429130e-01  5.883832e-02  1.139415e+02  1.833640e-01  4.001208e-01
</event>
<event>
     8  9999  1.000000e+00  8.618820e+01  7.812517e-03  1.276106e-01
        2    -1     0     0   101     0  0.0000000000e+00  0.0000000000e+00  1.0026098812e+02  1.0026098812e+02  0.0000000000e+00 0. 9.
       -2    -1     0     0     0   101  0.0000000000e+00  0.0000000000e+00 -7.5071733099e+01  7.5071733099e+01  0.0000000000e+00 0. 9.
      -24     2     1     2     0     0  1.6740909789e+00 -7.2792912531e+00  2.2253306961e+01  9.3234427271e+01  9.0231137065e+01 0. 9.
       24     2     1     2     0     0 -1.6740909789e+00  7.2792912531e+00  2.9359480654e+00  8.2098293953e+01  8.1705075835e+01 0. 9.
        1     1     3     0   102     0 -4.1464117794e+01  1.0673440647e+01  1.7543207331e+01  4.6271680574e+01  3.3000000000e-01 0. 9.
       -2     1     3     0     0   102  4.3138208773e+01 -1.7952731900e+01  4.7100996303e+00  4.6962746697e+01  3.3000000000e-01 0. 9.
       -1     1     4     0     0   103  3.0823609965e+01 -2.1909248955e+01 -3.3469321218e+00  3.7966050303e+01  3.3000000000e-01 0. 9.
        2     1     4     0   103     0 -3.2497700943e+01  2.9188540208e+01  6.2828801872e+00  4.4132243649e+01  3.3000000000e-01 0. 9.
#pdf    2   -2  1.023071e-01  7.660381e-02  8.204578e+01  5.684397e-01  5.748589e-01
</event>
<event>
     8  9999  1.000000e+00  8.933246e+01  7.815689e-03  1.269026e-01
        1    -1     0     0   101     0  0.0000000000e+00  0.0000000000e+00  1.4127665330e+02  1.4127665330e+02  0.0000000000e+00 0. 9.
       -1    -1     0     0     0   101  0.0000000000e+00  0.0000000000e+00 -5.8591108277e+01  5.8591108277e+01  0.0000000000e+00 0. 9.
      -24     2     1     2     0     0  3.3316107564e+01 -1.2252895819e+01  5.8932925443e+01  1.0493914449e+02  7.9240380268e+01 0. 9.
       24     2     1     2     0     0 -3.3316107564e+01  1.2252895819e+01  2.3752619578e+01  9.4928617090e+01  8.4777113224e+01 0. 9.
       15     1     3     0     0     0  5.6396762612e+01 -1.0740852418e+00  5.5344858559e+01  7.9044035541e+01  1.7769900000e+00  1.005315e-01 9.
      -16     1     3     0     0     0 -2.3080655048e+01 -1.1178810577e+01  3.5880668844e+00  2.5895108946e+01  0.0000000000e+00 0. 9.
       -3     1     4     0     0   102 -5.1010555681e+01 -2.0183986163e+00 -1.2084060535e+01  5.2463561096e+01  5.0000000000e-01 0. 9.
        4     1     4     0   102     0  1.7694448117e+01  1.4271294435e+01  3.5836680113e+01  4.2465055993e+01  1.5000000000e+00 0. 9.
#pdf    1   -1  1.441599e-01  5.978685e-02  8.682819e+01  2.916881e-01  3.998682e-01
</event>
<event>
     8  9999  1.000000e+00  1.166112e+02  7.839364e-03  1.218737e-01
        2    -1     0     0   101     0  0.0000000000e+00  0.0000000000e+00  2.5978242955e+02  2.5978242955e+02  0.0000000000e+00 0. 9.
       -2    -1     0     0     0   101  0.0000000000e+00  0.0000000000e+00 -5.4809451954e+01  5.4809451954e+01  0.0000000000e+00 0. 9.
      -24     2     1     2     0     0  6.3446765460e+01  5.2946068126e+01  6.8668505511e+01  1.3484761940e+02  8.1484591367e+01 0. 9.
       24     2     1     2     0     0 -6.3446765460e+01 -5.2946068126e+01  1.3630447208e+02  1.7974426210e+02  8.3068119475e+01 0. 9.
        3     1     3     0   102     0 -7.8639825949e+00  6.1119465020e+00 -1.3235446704e+01  1.6571818300e+01  5.0000000000e-01 0. 9.
       -4     1     3     0     0   102  7.1310748055e+01  4.6834121624e+01  8.1903952216e+01  1.1827580110e+02  1.5000000000e+00 0. 9.
       -1     1     4     0     0   103  1.3853453699e+01  2.7681356898e+00  4.7261695584e+01  4.9329073821e+01  3.3000000000e-01 0. 9.
        2     1     4     0   103     0 -7.7300219159e+01 -5.5714203815e+01  8.9042776497e+01  1.3041518828e+02  3.3000000000e-01 0. 9.
#pdf    2   -2  2.650841e-01  5.592801e-02  1.160539e+02  3.987941e-01  5.797194e-01
</event>
<event>
     8  9999  1.000000e+00  9.082475e+01  7.817157e-03  1.265779e-01
        1    -1     0     0   101     0  0.0000000000e+00  0.0000000000e+00  8.4366823185e+01  8.4366823185e+01  0.0000000000e+00 0. 9.
       -1    -1     0     0     0   101  0.0000000000e+00  0.0000000000e+00 -1.2757035530e+02  1.2757035530e+02  0.0000000000e+00 0. 9.
      -24     2     1     2     0     0 -2.6017151855e+01 -3.0298478912e+01  2.9732409032e+01  9.4894304202e+01  8.0783802882e+01 0. 9.
       24     2     1     2     0     0  2.6017151855e+01  3.0298478912e+01 -7.2935941147e+01  1.1704287428e+02  8.2368033206e+01 0. 9.
        3     1     3     0   102     0 -1.8333689034e+01 -5.6722727691e+01  3.1220618253e+01  6.7294643133e+01  5.0000000000e-01 0. 9.
       -4     1     3     0     0   102 -7.6834628207e+00  2.6424248779e+01 -1.4882092213e+00  2.7599661069e+01  1.5000000000e+00 0. 9.
      -15     1     4     0     0     0  6.6912685354e+00  9.7509084838e+00 -8.5378925704e+01  8.6212365346e+01  1.7769900000e+00  4.223337e-02 9.
       16     1     4     0     0     0  1.9325883319e+01  2.0547570428e+01  1.2442984557e+01  3.0830508936e+01  0.0000000000e+00 0. 9.
#pdf    1   -1  8.608860e-02  1.301738e-01  9.011611e+01  3.609404e-01  3.070948e-01
</event>
<event>
     8  9999  1.000000e+00  8.093468e+01  7.806955e-03  1.288726e-01
        2    -1     0     0   101     0  0.0000000000e+00  0.0000000000e+00  6.0415794887e+01  6.0415794887e+01  0.0000000000e+00 0. 9.
       -2    -1     0     0     0   101  0.0000000000e+00  0.0000000000e+00 -3.4275347304e+02  3.4275347304e+02  0.0000000000e+00 0. 9.
      -24     2     1     2     0     0 -1.1414393375e+01  9.0475816648e+00 -3.0776605325e+02  3.1819241279e+02  7.9462701367e+01 0. 9.
       24     2     1     2     0     0  1.1414393375e+01 -9.0475816648e+00  2.5428375101e+01  8.4976855142e+01  7.9764130657e+01 0. 9.
       13     1     3     0     0     0  2.3560108556e+01 -2.3241961356e+01 -1.1886399608e+02  1.2338528361e+02  1.0566000000e-01  1.359088e+05 9.
      -14     1     3     0     0     0 -3.4974501931e+01  3.2289543020e+01 -1.8890205718e+02  1.9480712918e+02  0.0000000000e+00 0. 9.
       -1     1     4     0     0   102  2.5440541790e+01  2.4335605748e+01 -7.5398951801e+00  3.6005580026e+01  3.3000000000e-01 0. 9.
        2     1     4     0   102     0 -1.4026148415e+01 -3.3383187413e+01  3.2968270281e+01  4.8971275116e+01  3.3000000000e-01 0. 9.
#pdf    2   -2  6.164877e-02  3.497484e-01  8.078656e+01  5.780367e-01  2.941329e-01
</event>
<event>
     8  9999  1.000000e+00  9.047313e+01  7.816813e-03  1.266538e-01
        2    -1     0     0   101     0  0.0000000000e+00  0.0000000000e+00  2.9577518294e+02  2.9577518294e+02  0.0000000000e+00 0. 9.
       -1    -1     0     0     0   101  0.0000000000e+00  0.0000000000e+00 -1.1142309691e+02  1.1142309691e+02  0.0000000000e+00 0. 9.
       23     2     1     2     0     0 -2.8120182613e+01 -8.5392094620e+00 -8.2924148253e+01  1.2653654606e+02  9.0947349372e+01 0. 9.
       24     2     1     2     0     0  2.8120182613e+01  8.5392094620e+00  2.6727623429e+02  2.8066173379e+02  8.0441038202e+01 0. 9.
        4     1     3     0   102     0 -9.0671119470e+00 -2.8784680495e+01  8.1547576911e+00  3.1297290989e+01  1.5000000000e+00 0. 9.
       -4     1     3     0     0   102 -1.9053070666e+01  2.0245471033e+01 -9.1078905944e+01  9.5239255074e+01  1.5000000000e+00 0. 9.
       -1     1     4     0     0   103 -2.3694679154e+01 -1.1445392194e+01  5.1318969378e+01  5.7673046917e+01  3.3000000000e-01 0. 9.
        4     1     4     0   103     0  5.1814861767e+01  1.9984601656e+01  2.1595726491e+02  2.2298868687e+02  1.5000000000e+00 0. 9.
#pdf    2   -1  3.018114e-01  1.136970e-01  8.564125e+01  3.580945e-01  3.272248e-01
</event>
<event>
     8  9999  1.000000e+00  1.000512e+02  7.825739e-03  1.247143e-01
        1    -1     0     0   101     0  0.0000000000e+00  0.0000000000e+00  2.0713596226e+02  2.0713596226e+02  0.0000000000e+00 0. 9.
       -1    -1     0     0     0   101  0.0000000000e+00  0.0000000000e+00 -1.2112514818e+02  1.2112514818e+02  0.0000000000e+00 0. 9.
       23     2     1     2     0     0  3.4108582275e+01  2.6848012236e+01  1.7034392034e+02  1.9784421857e+02  9.0780352928e+01 0. 9.
       23     2     1     2     0     0 -3.4108582275e+01 -2.6848012236e+01 -8.4333106258e+01  1.3041689188e+02  8.9511349726e+01 0. 9.
        4     1     3     0   102     0  2.8817639679e+01  3.1898933351e+01  1.8032207516e+02  1.8538149610e+02  1.5000000000e+00 0. 9.
       -4     1     3     0     0   102  5.2909425954e+00 -5.0509211141e+00 -9.9781548216e+00  1.2462722467e+01  1.5000000000e+00 0. 9.
        5     1     4     0   103     0  1.5339746761e+00 -1.1792237432e+01  1.7315736451e+01  2.1547265970e+01  4.8000000000e+00 0. 9.
       -5     1     4     0     0   103 -3.5642556951e+01 -1.5055774805e+01 -1.0164884271e+02  1.0886962591e+02  4.8000000000e+00 0. 9.
#pdf    1   -1  2.113632e-01  1.235971e-01  9.948112e+01  2.166551e-01  3.132261e-01
</event>
<event>
     8  9999  1.000000e+00  8.862174e+01  7.814982e-03  1.270598e-01
        2    -1     0     0   101     0  0.0000000000e+00  0.0000000000e+00  3.2029575078e+02  3.2029575078e+02  0.0000000000e+00 0. 9.
       -1    -1     0     0     0   101  0.0000000000e+00  0.0000000000e+00 -5.1775075039e+01  5.1775075039e+01  0.0000000000e+00 0. 9.
       23     2     1     2     0     0  1.8995810779e+01 -1.7971889608e+01  2.7204309870e+02  2.8747409669e+02  8.9163215910e+01 0. 9.
       24     2     1     2     0     0 -1.8995810779e+01  1.7971889608e+01 -3.5224229624e+00  8.4596729131e+01  8.0376423614e+01 0. 9.
       16     1     3     0     0     0  3.4535770915e+01 -4.3729004057e+01  1.1766123119e+02  1.3018874988e+02  0.0000000000e+00 0. 9.
      -16     1     3     0     0     0 -1.5539960136e+01  2.5757114450e+01  1.5438186751e+02  1.5728534681e+02  0.0000000000e+00 0. 9.
       -1     1     4     0     0   102  1.2411639767e+01 -1.1116285382e+01 -2.9958982994e+01  3.4282213529e+01  3.3000000000e-01 0. 9.
        2     1     4     0   102     0 -3.1407450545e+01  2.9088174990e+01  2.6436560032e+01  5.0314515602e+01  3.3000000000e-01 0. 9.
#pdf    2   -1  3.268324e-01  5.283171e-02  8.452336e+01  3.237325e-01  4.123730e-01
</event>
<event>
     8  9999  1.000000e+00  1.023565e+02  7.827762e-03  1.242835e-01
        1    -1     0     0   101     0  0.0000000000e+00  0.0000000000e+00  2.3756666481e+02  2.3756666481e+02  0.0000000000e+00 0. 9.
       -1    -1     0     0     0   101  0.0000000000e+00  0.0000000000e+00 -5.1642665145e+01  5.1642665145e+01  0.0000000000e+00 0. 9.
      -24     2     1     2     0     0  6.5595309415e+01  1.4044770908e+01  1.4970375369e+02  1.8249790259e+02  7.9964181813e+01 0. 9.
       24     2     1     2     0     0 -6.5595309415e+01 -1.4044770908e+01  3.6220245972e+01  1.0671142736e+02  7.4668750523e+01 0. 9.
        3     1     3     0   102     0  5.8960825571e+01  1.8274747121e+01  1.5880088043e+02  1.7037697896e+02  5.0000000000e-01 0. 9.
       -4     1     3     0     0   102  6.6344838446e+00 -4.2299762126e+00 -9.0971267404e+00  1.2120923627e+01  1.5000000000e+00 0. 9.
      -13     1     4     0     0     0 -6.4990425618e+01  1.6225974000e+01  1.2253862528e+01  6.8097033453e+01  1.0566000000e-01  1.068645e+05 9.
       14     1     4     0     0     0 -6.0488379729e-01 -3.0270744908e+01  2.3966383444e+01  3.8614393911e+01  0.0000000000e+00 0. 9.
#pdf    1   -1  2.424150e-01  5.269660e-02  1.003764e+02  1.860364e-01  4.121210e-01
</event>
<event>
     8  9999  1.000000e+00  1.084413e+02  7.832896e-03  1.232045e-01
        2    -1     0     0   101     0  0.0000000000e+00  0.0000000000e+00  1.7625760074e+02  1.7625760074e+02  0.0000000000e+00 0. 9.
       -2    -1     0     0     0   101  0.0000000000e+00  0.0000000000e+00 -1.1614019158e+02  1.1614019158e+02  0.0000000000e+00 0. 9.
      -24     2     1     2     0     0 -6.9892986259e+01 -2.1559005745e+01 -6.5232196619e+01  1.2697003930e+02  8.0723795423e+01 0. 9.
       24     2     1     2     0     0  6.9892986259e+01  2.1559005745e+01  1.2534960578e+02  1.6542775302e+02  7.9397717492e+01 0. 9.
        1     1     3     0   102     0 -3.3651784161e+01 -4.9830715113e+01 -2.2476915785e+01  6.4193951343e+01  3.3000000000e-01 0. 9.
       -2     1     3     0     0   102 -3.6241202098e+01  2.8271709368e+01 -4.2755280835e+01  6.2776087959e+01  3.3000000000e-01 0. 9.
      -15     1     4     0     0     0  5.0348981952e+01  4.5289550140e+01  5.0455085738e+01  8.4469146472e+01  1.7769900000e+00  6.163097e-02 9.
       16     1     4     0     0     0  1.9544004308e+01 -2.3730544396e+01  7.4894520042e+01  8.0958606547e+01  0.0000000000e+00 0. 9.
#pdf    2   -2  1.798547e-01  1.185104e-01  1.079528e+02  5.081149e-01  5.569028e-01
</event>
<event>
     8  9999  1.000000e+00  9.264432e+01  7.818915e-03  1.261913e-01
        2    -1     0     0   101     0  0.0000000000e+00  0.0000000000e+00  5.5479047401e+01  5.5479047401e+01  0.0000000000e+00 0. 9.
       -2    -1     0     0     0   101  0.0000000000e+00  0.0000000000e+00 -3.9631018452e+02  3.9631018452e+02  0.0000000000e+00 0. 9.
      -24     2     1     2     0     0 -2.9984784700e+01  3.6100730929e+01 -3.4769490106e+02  3.6016042096e+02  8.1372197400e+01 0. 9.
       24     2     1     2     0     0  2.9984784700e+01 -3.6100730929e+01  6.8637639450e+00  9.1628810965e+01  7.8398837085e+01 0. 9.
       13     1     3     0     0     0 -2.3524326827e+01 -1.9864308212e+01 -6.5220136724e+01  7.2122549121e+01  1.0566000000e-01  8.777243e+05 9.
      -14     1     3     0     0     0 -6.4604578731e+00  5.5965039140e+01 -2.8247476434e+02  2.8803787183e+02  0.0000000000e+00 0. 9.
      -11     1     4     0     0     0  1.8283607889e+00  2.9368862732e+00 -3.0500453806e+01  3.0696023958e+01  5.1100000000e-04 0. 9.
       12     1     4     0     0     0  2.8156423911e+01 -3.9037617202e+01  3.7364217751e+01  6.0932787007e+01  0.0000000000e+00 0. 9.
#pdf    2   -2  5.661127e-02  4.043981e-01  9.137137e+01  5.794561e-01  2.209211e-01
</event>
<event>
     8  9999  1.000000e+00  9.304544e+01  7.819298e-03  1.261074e-01
       -2    -1     0     0     0   101  0.0000000000e+00  0.0000000000e+00  1.1382539617e+02  1.1382539617e+02  0.0000000000e+00 0. 9.
        2    -1     0     0   101     0  0.0000000000e+00  0.0000000000e+00 -7.7573755298e+01  7.7573755298e+01  0.0000000000e+00 0. 9.
      -24     2     1     2     0     0  2.8558536436e+00  4.6412636978e+01  3.1663175184e+01  9.9358120333e+01  8.1897439777e+01 0. 9.
       24     2     1     2     0     0 -2.8558536436e+00 -4.6412636978e+01  4.5884656857e+00  9.2041031133e+01  7.9298225852e+01 0. 9.
        1     1     3     0   102     0 -3.0912701628e+01  3.8914655221e+00 -7.9354104364e+00  3.2153044407e+01  3.3000000000e-01 0. 9.
       -2     1     3     0     0   102  3.3768555271e+01  4.2521171456e+01  3.9598585620e+01  6.7205075926e+01  3.3000000000e-01 0. 9.
       -3     1     4     0     0   103  3.7481016716e+01 -2.8443333347e+01  7.9847197714e+00  4.7726885251e+01  5.0000000000e-01 0. 9.
        4     1     4     0   103     0 -4.0336870359e+01 -1.7969303631e+01 -3.3962540857e+00  4.4314145881e+01  1.5000000000e+00 0. 9.
#pdf   -2    2  1.161484e-01  7.915689e-02  9.192659e+01  7.023789e-02  1.107197e-01
</event>
<event>
     8  9999  1.000000e+00  1.143816e+02  7.837644e-03  1.222246e-01
        2    -1     0     0   101     0  0.0000000000e+00  0.0000000000e+00  3.7992362903e+02  3.7992362903e+02  0.0000000000e+00 0. 9.
       -2    -1     0     0     0   101  0.0000000000e+00  0.0000000000e+00 -4.0249442305e+01  4.0249442305e+01  0.0000000000e+00 0. 9.
      -24     2     1     2     0     0 -7.8011165749e+01  1.9104131810e+01  9.1983840657e+01  1.4798003590e+02  8.3584413918e+01 0. 9.
       24     2     1     2     0     0  7.8011165749e+01 -1.9104131810e+01  2.4769034607e+02  2.7219303543e+02  7.9295845847e+01 0. 9.
        3     1     3     0   102     0 -3.3149190864e+01 -3.0373670001e+01  1.8366218416e+01  4.8569503427e+01  5.0000000000e-01 0. 9.
       -4     1     3     0     0   102 -4.4861974884e+01  4.9477801811e+01  7.3617622242e+01  9.9410532475e+01  1.5000000000e+00 0. 9.
       -1     1     4     0     0   103  1.8015385034e+00 -2.6851955942e+01  2.5145176556e+01  3.6832891319e+01  3.3000000000e-01 0. 9.
        2     1     4     0   103     0  7.6209627245e+01  7.7478241321e+00  2.2254516951e+02  2.3536014411e+02  3.3000000000e-01 0. 9.
#pdf    2   -2  3.876772e-01  4.107086e-02  1.128651e+02  2.346964e-01  5.899958e-01
</event>
<event>
     8  9999  1.000000e+00  1.438397e+02  7.858109e-03  1.181855e-01
        2    -1     0     0   101     0  0.0000000000e+00  0.0000000000e+00  1.3338126568e+02  1.3338126568e+02  0.0000000000e+00 0. 9.
       -2    -1     0     0     0   101  0.0000000000e+00  0.0000000000e+00 -1.6201964572e+02  1.6201964572e+02  0.0000000000e+00 0. 9.
      -24     2     1     2     0     0 -2.3509951179e+01 -1.1612423340e+02 -4.4909401019e+01  1.5217983602e+02  8.4286966990e+01 0. 9.
       24     2     1     2     0     0  2.3509951179e+01  1.1612423340e+02  1.6271020981e+01  1.4322107537e+02  7.8803394093e+01 0. 9.
        3     1     3     0   102     0  1.6595633306e+01 -3.7235574791e+01  1.6994302307e+01  4.4169665900e+01  5.0000000000e-01 0. 9.
       -4     1     3     0     0   102 -4.0105584485e+01 -7.8888658607e+01 -6.1903703327e+01  1.0801017012e+02  1.5000000000e+00 0. 9.
       -3     1     4     0     0   103  3.7699311872e+01  7.8655423269e+01 -1.9648642461e+01  8.9410474084e+01  5.0000000000e-01 0. 9.
        2     1     4     0   103     0 -1.4189360693e+01  3.7468810128e+01  3.5919663442e+01  5.3810601289e+01  3.3000000000e-01 0. 9.
#pdf    2   -2  1.361033e-01  1.653262e-01  1.422938e+02  5.401870e-01  5.151677e-01
</event>
<event>
     8  9999  1.000000e+00  1.555750e+02  7.865137e-03  1.168638e-01
        2    -1     0     0   101     0  0.0000000000e+00  0.0000000000e+00  5.5969730164e+02  5.5969730164e+02  0.0000000000e+00 0. 9.
       -1    -1     0     0     0   101  0.0000000000e+00  0.0000000000e+00 -7.9354384732e+01  7.9354384732e+01  0.0000000000e+00 0. 9.
       23     2     1     2     0     0  1.0668532126e+02  5.8456941876e+01  2.2561760653e+01  1.5473584963e+02  9.2925660020e+01 0. 9.
       24     2     1     2     0     0 -1.0668532126e+02 -5.8456941876e+01  4.5778115625e+02  4.8431583674e+02  1.0099143961e+02 0. 9.
       11     1     3     0     0     0  1.1659041859e+02  3.7002307412e+01  3.6054669279e+01  1.2752425510e+02  5.1100000000e-04 0. 9.
      -11     1     3     0     0     0 -9.9050973352e+00  2.1454634463e+01 -1.3492908627e+01  2.7211594526e+01  5.1100000000e-04 0. 9.
       -1     1     4     0     0   102  3.9361476422e+00  1.9294185257e+01  9.8146215990e+01  1.0010268456e+02  3.3000000000e-01 0. 9.
        2     1     4     0   102     0 -1.1062146890e+02 -7.7751127133e+01  3.5963494026e+02  3.8421315218e+02  3.3000000000e-01 0. 9.
#pdf    2   -1  5.711197e-01  8.097386e-02  1.530822e+02  6.575794e-02  3.624807e-01
</event>
<event>
     8  9999  1.000000e+00  8.586770e+01  7.812187e-03  1.276847e-01
        2    -1     0     0   101     0  0.0000000000e+00  0.0000000000e+00  1.4837761084e+02  1.4837761084e+02  0.0000000000e+00 0. 9.
       -2    -1     0     0     0   101  0.0000000000e+00  0.0000000000e+00 -5.0211378232e+02  5.0211378232e+02  0.0000000000e+00 0. 9.
      -24     2     1     2     0     0 -2.6404790142e+01  1.2283720307e+01 -4.8565971105e+02  4.9324349002e+02  8.1090583796e+01 0. 9.
       24     2     1     2     0     0  2.6404790142e+01 -1.2283720307e+01  1.3192353957e+02  1.5724790314e+02  8.0467260578e+01 0. 9.
        1     1     3     0   102     0 -2.1371738143e+01 -2.8347651067e+01 -1.1568549148e+02  1.2101067040e+02  3.3000000000e-01 0. 9.
       -2     1     3     0     0   102 -5.0330519995e+00  4.0631371374e+01 -3.6997421957e+02  3.7223281962e+02  3.3000000000e-01 0. 9.
      -11     1     4     0     0     0  5.4797043324e+00 -3.9523545347e+01  3.0670333096e+01  5.0327001986e+01  5.1100000000e-04 0. 9.
       12     1     4     0     0     0  2.0925085810e+01  2.7239825040e+01  1.0125320647e+02  1.0692090116e+02  0.0000000000e+00 0. 9.
#pdf    2   -2  1.514057e-01  5.123610e-01  8.557501e+01  5.404420e-01  1.149261e-01
</event>
<event>
     8  9999  1.000000e+00  9.440840e+01  7.820587e-03  1.258259e-01
        2    -1     0     0   101     0  0.0000000000e+00  0.0000000000e+00  5.7826384685e+01  5.7826384685e+01  0.0000000000e+00 0. 9.
       -2    -1     0     0     0   101  0.0000000000e+00  0.0000000000e+00 -1.5804279125e+02  1.5804279125e+02  0.0000000000e+00 0. 9.
      -24     2     1     2     0     0  5.7543099694e-01 -4.9608846089e+01 -6.7016122845e+01  1.1566863929e+02  8.0166730406e+01 0. 9.
       24     2     1     2     0     0 -5.7543099694e-01  4.9608846089e+01 -3.3200283720e+01  1.0020053664e+02  8.0476828794e+01 0. 9.
        1     1     3     0   102     0  7.0130657500e+00 -5.1581450742e+00  1.7730427659e+01  1.9755164307e+01  3.3000000000e-01 0. 9.
       -2     1     3     0     0   102 -6.4376347530e+00 -4.4450701014e+01 -8.4746550504e+01  9.5913474988e+01  3.3000000000e-01 0. 9.
      -11     1     4     0     0     0 -2.6169502523e+00 -1.9395898088e+01 -2.3348146237e+01  3.0466132413e+01  5.1100000000e-04 0. 9.
       12     1     4     0     0     0  2.0415192554e+00  6.9004744177e+01 -9.8521374829e+00  6.9734404226e+01  0.0000000000e+00 0. 9.
#pdf    2   -2  5.900651e-02  1.612682e-01  9.427658e+01  5.786028e-01  5.297471e-01
</event>
<event>
     8  9999  1.000000e+00  8.176497e+01  7.807857e-03  1.286661e-01
        2    -1     0     0   101     0  0.0000000000e+00  0.0000000000e+00  5.0233774851e+01  5.0233774851e+01  0.0000000000e+00 0. 9.
       -2    -1     0     0     0   101  0.0000000000e+00  0.0000000000e+00 -3.2077181567e+02  3.2077181567e+02  0.0000000000e+00 0. 9.
      -24     2     1     2     0     0  2.6948571369e+00  7.3050424411e+00 -2.7719650957e+02  2.8901775728e+02  8.1441593820e+01 0. 9.
       24     2     1     2     0     0 -2.6948571369e+00 -7.3050424411e+00  6.6584687479e+00  8.1987833247e+01  8.1345213100e+01 0. 9.
        1     1     3     0   102     0 -3.7696020812e+01  1.4537728675e+01 -1.5134950373e+02  1.5664966237e+02  3.3000000000e-01 0. 9.
       -2     1     3     0     0   102  4.0390877949e+01 -7.2326862334e+00 -1.2584700584e+02  1.3236809491e+02  3.3000000000e-01 0. 9.
       -3     1     4     0     0   103  3.7366736001e+01  5.4815887854e+00 -5.5443333185e+00  3.8174735192e+01  5.0000000000e-01 0. 9.
        4     1     4     0   103     0 -4.0061593138e+01 -1.2786631226e+01  1.2202802066e+01  4.3813098055e+01  1.5000000000e+00 0. 9.
#pdf    2   -2  5.125895e-02  3.273182e-01  8.171701e+01  5.813913e-01  3.242633e-01
</event>
<event>
     8  9999  1.000000e+00  1.178091e+02  7.840274e-03  1.216888e-01
        1    -1     0     0   101     0  0.0000000000e+00  0.0000000000e+00  1.3701222764e+02  1.3701222764e+02  0.0000000000e+00 0. 9.
       -1    -1     0     0     0   101  0.0000000000e+00  0.0000000000e+00 -1.1969463738e+02  1.1969463738e+02  0.0000000000e+00 0. 9.
      -24     2     1     2     0     0 -2.8827665162e+00 -8.0820986900e+01  5.9058458472e+01  1.3483540529e+02  9.0290324709e+01 0. 9.
       24     2     1     2     0     0  2.8827665162e+00  8.0820986900e+01 -4.1740868209e+01  1.2187145974e+02  8.1055600382e+01 0. 9.
        1     1     3     0   102     0  6.1042506820e-01  1.7287990904e+01 -4.5095863796e+00  1.7879947360e+01  3.3000000000e-01 0. 9.
       -2     1     3     0     0   102 -3.4931915844e+00 -9.8108977804e+01  6.3568044852e+01  1.1695545793e+02  3.3000000000e-01 0. 9.
       -3     1     4     0     0   103  2.8406062887e+01 -1.3494369054e+00 -1.0076397745e+01  3.0174644657e+01  5.0000000000e-01 0. 9.
        4     1     4     0   103     0 -2.5523296370e+01  8.2170423805e+01 -3.1664470464e+01  9.1696815079e+01  1.5000000000e+00 0. 9.
#pdf    1   -1  1.398084e-01  1.221374e-01  1.145004e+02  2.920544e-01  3.128170e-01
</event>
<event>
     8  9999  1.000000e+00  9.531872e+01  7.821438e-03  1.256407e-01
       -1    -1     0     0     0   101  0.0000000000e+00  0.0000000000e+00  2.0370380306e+02  2.0370380306e+02  0.0000000000e+00 0. 9.
        2    -1     0     0   101     0  0.0000000000e+00  0.0000000000e+00 -8.9723071937e+01  8.9723071937e+01  0.0000000000e+00 0. 9.
       23     2     1     2     0     0  4.4236840119e+01  8.4091839686e+00  1.6234131026e+02  1.9099455496e+02  8.9981145849e+01 0. 9.
       24     2     1     2     0     0 -4.4236840119e+01 -8.4091839686e+00 -4.8360579135e+01  1.0243232004e+02  7.8268909381e+01 0. 9.
       14     1     3     0     0     0  1.9905606544e+01 -1.5315831473e+00 -5.8169333611e+00  2.0794605852e+01  0.0000000000e+00 0. 9.
      -14     1     3     0     0     0  2.4331233575e+01  9.9407671159e+00  1.6815824362e+02  1.7019994911e+02  0.0000000000e+00 0. 9.
       -3     1     4     0     0   102  1.6040840757e+00 -6.5409912712e+00  1.9425575524e+01  2.0566006831e+01  5.0000000000e-01 0. 9.
        4     1     4     0   102     0 -4.5840924195e+01 -1.8681926973e+00 -6.7786154659e+01  8.1866313209e+01  1.5000000000e+00 0. 9.
#pdf   -1    2  2.078610e-01  9.155416e-02  9.029748e+01  3.911998e-02  9.432843e-02
</event>
<event>
     8  9999  1.000000e+00  1.106350e+02  7.834678e-03  1.228347e-01
        1    -1     0     0   101     0  0.0000000000e+00  0.0000000000e+00  2.3753505425e+02  2.3753505425e+02  0.0000000000e+00 0. 9.
       -1    -1     0     0     0   101  0.0000000000e+00  0.0000000000e+00 -1.2128547415e+02  1.2128547415e+02  0.0000000000e+00 0. 9.
      -24     2     1     2     0     0 -3.7330853636e+00 -7.5470491354e+01  1.9422594840e+02  2.2361585985e+02  8.1059254565e+01 0. 9.
       24     2     1     2     0     0  3.7330853636e+00  7.5470491354e+01 -7.7976368303e+01  1.3520466856e+02  8.0562133757e+01 0. 9.
       11     1     3     0     0     0 -3.4894371088e+01 -1.6512494070e+01  1.0745948719e+02  1.1418327803e+02  5.1100000000e-04 0. 9.
      -12     1     3     0     0     0  3.1161285725e+01 -5.8957997285e+01  8.6766461208e+01  1.0943258181e+02  0.0000000000e+00 0. 9.
       -1     1     4     0     0   102  7.7057762250e+00  8.7666950661e+01 -4.2999918976e+01  9.7948839490e+01  3.3000000000e-01 0. 9.
        2     1     4     0   102     0 -3.9726908614e+00 -1.2196459307e+01 -3.4976449327e+01  3.7255829071e+01  3.3000000000e-01 0. 9.
#pdf    1   -1  2.423827e-01  1.237607e-01  1.104536e+02  1.843976e-01  3.114276e-01
</event>
<event>
     8  9999  1.000000e+00  1.139441e+02  7.837302e-03  1.222945e-01
        2    -1     0     0   101     0  0.0000000000e+00  0.0000000000e+00  7.7644349217e+01  7.7644349217e+01  0.0000000000e+00 0. 9.
       -2    -1     0     0     0   101  0.0000000000e+00  0.0000000000e+00 -5.3101611776e+02  5.3101611776e+02  0.0000000000e+00 0. 9.
      -24     2     1     2     0     0  7.7441446490e+01 -2.1884952514e+01 -4.7837329076e+02  4.9167921455e+02  8.0195485702e+01 0. 9.
       24     2     1     2     0     0 -7.7441446490e+01  2.1884952514e+01  2.5001522216e+01  1.1698125243e+02  8.1138206322e+01 0. 9.
        1     1     3     0   102     0  8.2336730352e+01 -4.2727647784e+00 -2.6513420961e+02  2.7765779602e+02  3.3000000000e-01 0. 9.
       -2     1     3     0     0   102 -4.8952838623e+00 -1.7612187736e+01 -2.1323908114e+02  2.1402141853e+02  3.3000000000e-01 0. 9.
      -11     1     4     0     0     0  1.0811551834e+01  1.3256955443e+01 -1.2001399311e+01  2.0896652994e+01  5.1100000000e-04 0. 9.
       12     1     4     0     0     0 -8.8252998324e+01  8.6279970714e+00  3.7002921527e+01  9.6084599433e+01  0.0000000000e+00 0. 9.
#pdf    2   -2  7.922893e-02  5.418532e-01  1.136109e+02  5.716756e-01  8.795532e-02
</event>
<event>
     8  9999  1.000000e+00  1.135745e+02  7.837013e-03  1.223538e-01
        2    -1     0     0   101     0  0.0000000000e+00  0.0000000000e+00  3.5105109127e+02  3.5105109127e+02  0.0000000000e+00 0. 9.
       -2    -1     0     0     0   101  0.0000000000e+00  0.0000000000e+00 -5.0726671642e+01  5.0726671642e+01  0.0000000000e+00 0. 9.
      -24     2     1     2     0     0  1.0043718376e+00 -8.0887739322e+01  4.4477648880e+01  1.2176335390e+02  7.9399105590e+01 0. 9.
       24     2     1     2     0     0 -1.0043718376e+00  8.0887739322e+01  2.5584677074e+02  2.8001440900e+02  8.0041639258e+01 0. 9.
       15     1     3     0     0     0  1.1348424069e+01  5.4670590958e+00  3.1315639730e+01  3.3800923791e+01  1.7769900000e+00  2.863733e-02 9.
      -16     1     3     0     0     0 -1.0344052231e+01 -8.6354798417e+01  1.3162009150e+01  8.7962430112e+01  0.0000000000e+00 0. 9.
       -3     1     4     0     0   102 -3.0605576297e+01  5.8437839363e+01  2.1446766134e+02  2.2438429119e+02  5.0000000000e-01 0. 9.
        4     1     4     0   102     0  2.9601204459e+01  2.2449899959e+01  4.1379109403e+01  5.5630117819e+01  1.5000000000e+00 0. 9.
#pdf    2   -2  3.582154e-01  5.176191e-02  1.133493e+02  2.717160e-01  5.818585e-01
</event>
<event>
     8  9999  1.000000e+00  8.544766e+01  7.811753e-03  1.277823e-01
        2    -1     0     0   101     0  0.0000000000e+00  0.0000000000e+00  1.1310450700e+02  1.1310450700e+02  0.0000000000e+00 0. 9.
       -2    -1     0     0     0   101  0.0000000000e+00  0.0000000000e+00 -8.2843661260e+01  8.2843661260e+01  0.0000000000e+00 0. 9.
      -24     2     1     2     0     0  2.8458464773e+01  8.4842283457e-01 -3.0934038771e+01  9.0670625816e+01  8.0334572835e+01 0. 9.
       24     2     1     2     0     0 -2.8458464773e+01 -8.4842283457e-01  6.1194884507e+01  1.0527754244e+02  8.0795686852e+01 0. 9.
        1     1     3     0   102     0 -2.6536252937e+01 -9.9797417307e+00 -1.6444738439e+01  3.2776611894e+01  3.3000000000e-01 0. 9.
       -2     1     3     0     0   102  5.4994717710e+01  1.0828164565e+01 -1.4489300332e+01  5.7894013922e+01  3.3000000000e-01 0. 9.
       -1     1     4     0     0   103 -1.4187895065e+01  1.8556262119e+01 -1.3371030290e+01  2.6916994283e+01  3.3000000000e-01 0. 9.
        2     1     4     0   103     0 -1.4270569708e+01 -1.9404684954e+01  7.4565914797e+01  7.8360548157e+01  3.3000000000e-01 0. 9.
#pdf    2   -2  1.154128e-01  8.453435e-02  8.523056e+01  5.627094e-01  5.728608e-01
</event>
<event>
     8  9999  1.000000e+00  8.871097e+01  7.815071e-03  1.270399e-01
        1    -1     0     0   101     0  0.0000000000e+00  0.0000000000e+00  1.0984738261e+02  1.0984738261e+02  0.0000000000e+00 0. 9.
       -1    -1     0     0     0   101  0.0000000000e+00  0.0000000000e+00 -8.3860790260e+01  8.3860790260e+01  0.0000000000e+00 0. 9.
      -24     2     1     2     0     0  1.2894882958e+00  3.6490423642e+01  5.0002555119e+01  1.0211105109e+02  8.1198506380e+01 0. 9.
       24     2     1     2     0     0 -1.2894882958e+00 -3.6490423642e+01 -2.4015962774e+01  9.1597121776e+01  8.0498772985e+01 0. 9.
        1     1     3     0   102     0 -2.3013960610e+00  3.1753756752e+01  7.2292694966e+01  7.8993291723e+01  3.3000000000e-01 0. 9.
       -4     1     3     0     0   102  3.5908843567e+00  4.7366668904e+00 -2.2290139847e+01  2.3117759366e+01  1.5000000000e+00 0. 9.
      -15     1     4     0     0     0  3.9141938721e+01 -2.1828361881e+01 -7.2383797119e+00  4.5432593846e+01  1.7769900000e+00  4.437067e-03 9.
       16     1     4     0     0     0 -4.0431427016e+01 -1.4662061761e+01 -1.6777583062e+01  4.6164527931e+01  0.0000000000e+00 0. 9.
#pdf    1   -1  1.120892e-01  8.557223e-02  8.839268e+01  3.286821e-01  3.618350e-01
</event>
<event>
     8  9999  1.000000e+00  1.155567e+02  7.838554e-03  1.220386e-01
        2    -1     0     0   101     0  0.0000000000e+00  0.0000000000e+00  3.7193643171e+02  3.7193643171e+02  0.0000000000e+00 0. 9.
       -1    -1     0     0     0   101  0.0000000000e+00  0.0000000000e+00 -8.5958333810e+01  8.5958333810e+01  0.0000000000e+00 0. 9.
       23     2     1     2     0     0  7.0385921747e+01  2.2325366144e+01  3.2024187534e+02  3.4233811859e+02  9.5853684167e+01 0. 9.
       24     2     1     2     0     0 -7.0385921747e+01 -2.2325366144e+01 -3.4263777434e+01  1.1555664693e+02  8.2016658381e+01 0. 9.
        4     1     3     0   102     0 -1.5008407588e+01 -1.8107973788e+01  3.8172524408e+01  4.4861371276e+01  1.5000000000e+00 0. 9.
       -4     1     3     0     0   102  8.5394329335e+01  4.0433339932e+01  2.8206935093e+02  2.9747674732e+02  1.5000000000e+00 0. 9.
       -3     1     4     0     0   103 -3.8493207498e+01  1.3891245866e+01 -5.0149484264e+01  6.4729548949e+01  5.0000000000e-01 0. 9.
        4     1     4     0   103     0 -3.1892714249e+01 -3.6216612010e+01  1.5885706830e+01  5.0827097981e+01  1.5000000000e+00 0. 9.
#pdf    2   -1  3.795270e-01  8.771259e-02  1.103600e+02  2.454051e-01  3.565271e-01
</event>
<event>
     8  9999  1.000000e+00  8.211770e+01  7.808237e-03  1.285792e-01
        2    -1     0     0   101     0  0.0000000000e+00  0.0000000000e+00  5.7434682183e+01  5.7434682183e+01  0.0000000000e+00 0. 9.
       -2    -1     0     0     0   101  0.0000000000e+00  0.0000000000e+00 -2.5014291303e+02  2.5014291303e+02  0.0000000000e+00 0. 9.
      -24     2     1     2     0     0  3.0014691278e+00 -1.6235616829e+01 -2.0880026244e+02  2.2465324521e+02  8.1233779418e+01 0. 9.
       24     2     1     2     0     0 -3.0014691278e+00  1.6235616829e+01  1.6092031594e+01  8.2924350001e+01  7.9654819512e+01 0. 9.
        3     1     3     0   102     0  3.4157774901e+01  1.5526101379e+01 -7.9664296306e+01  8.8059431727e+01  5.0000000000e-01 0. 9.
       -4     1     3     0     0   102 -3.1156305773e+01 -3.1761718208e+01 -1.2913596614e+02  1.3659381349e+02  1.5000000000e+00 0. 9.
       -3     1     4     0     0   103 -4.0702098285e+01  1.2477286421e+00  7.0231023181e+00  4.1325435239e+01  5.0000000000e-01 0. 9.
        4     1     4     0   103     0  3.7700629157e+01  1.4987888187e+01  9.0689292758e+00  4.1598914762e+01  1.5000000000e+00 0. 9.
#pdf    2   -2  5.860682e-02  2.552479e-01  8.134798e+01  5.788315e-01  4.247582e-01
</event>
<event>
     8  9999  1.000000e+00  8.287137e+01  7.809045e-03  1.283952e-01
        2    -1     0     0   101     0  0.0000000000e+00  0.0000000000e+00  3.4875466139e+02  3.4875466139e+02  0.0000000000e+00 0. 9.
       -1    -1     0     0     0   101  0.0000000000e+00  0.0000000000e+00 -4.7902919021e+01  4.7902919021e+01  0.0000000000e+00 0. 9.
       23     2     1     2     0     0  1.7597228056e+01  1.9546428812e+01 -2.8473875761e+00  8.1459900799e+01  7.7044678646e+01 0. 9.
       24     2     1     2     0     0 -1.7597228056e+01 -1.9546428812e+01  3.0369912995e+02  3.1519767961e+02  8.0154166384e+01 0. 9.
        3     1     3     0   102     0  3.6038697768e+01 -7.0604681411e+00  2.0012878525e+01  4.1825868240e+01  5.0000000000e-01 0. 9.
       -3     1     3     0     0   102 -1.8441469713e+01  2.6606896953e+01 -2.2860266101e+01  3.9634032558e+01  5.0000000000e-01 0. 9.
      -11     1     4     0     0     0 -4.0727113106e+01  1.4170845073e+01  1.7016132266e+02  1.7554026980e+02  5.1100000000e-04 0. 9.
       12     1     4     0     0     0  2.3129885051e+01 -3.3717273885e+01  1.3353780729e+02  1.3965740981e+02  0.0000000000e+00 0. 9.
#pdf    2   -1  3.558721e-01  4.888053e-02  8.141012e+01  2.857003e-01  4.201956e-01
</event>
<event>
     8  9999  1.000000e+00  8.700374e+01  7.813350e-03  1.274238e-01
        2    -1     0     0   101     0  0.0000000000e+00  0.0000000000e+00  3.2766027336e+01  3.2766027336e+01  0.0000000000e+00 0. 9.
       -2    -1     0     0     0   101  0.0000000000e+00  0.0000000000e+00 -3.6488799517e+02  3.6488799517e+02  0.0000000000e+00 0. 9.
      -24     2     1     2     0     0 -3.3464434209e+01  1.4189196586e+01 -2.8909994890e+02  3.0256857722e+02  8.1533807800e+01 0. 9.
       24     2     1     2     0     0  3.3464434209e+01 -1.4189196586e+01 -4.3022018938e+01  9.5085445283e+01  7.6610352658e+01 0. 9.
        3     1     3     0   102     0 -3.7648745355e+01  4.4675341961e+01 -1.9327084417e+02  2.0190884927e+02  5.0000000000e-01 0. 9.
       -4     1     3     0     0   102  4.1843111460e+00 -3.0486145375e+01 -9.5829104722e+01  1.0065972795e+02  1.5000000000e+00 0. 9.
       -1     1     4     0     0   103  1.7013633174e+01 -3.3915624363e+01 -5.4937884419e+01  6.6768355784e+01  3.3000000000e-01 0. 9.
        2     1     4     0   103     0  1.6450801036e+01  1.9726427777e+01  1.1915865480e+01  2.8317089499e+01  3.3000000000e-01 0. 9.
#pdf    2   -2  3.343472e-02  3.723347e-01  8.479592e+01  5.965545e-01  2.628369e-01
</event>
<event>
     8  9999  1.000000e+00  8.664447e+01  7.812984e-03  1.275058e-01
        1    -1     0     0   101     0  0.0000000000e+00  0.0000000000e+00  2.9965096596e+02  2.9965096596e+02  0.0000000000e+00 0. 9.
       -1    -1     0     0     0   101  0.0000000000e+00  0.0000000000e+00 -1.1312330489e+02  1.1312330489e+02  0.0000000000e+00 0. 9.
      -24     2     1     2     0     0 -4.2400681502e+01 -7.3172831674e+00  2.7698459232e+02  2.9306777935e+02  8.5538871202e+01 0. 9.
       24     2     1     2     0     0  4.2400681502e+01  7.3172831674e+00 -9.0456931244e+01  1.1970649150e+02  6.5542560770e+01 0. 9.
        3     1     3     0   102     0 -3.6180260765e+01 -4.3121614499e+01  2.0248056472e+02  2.1015973448e+02  5.0000000000e-01 0. 9.
       -4     1     3     0     0   102 -6.2204207371e+00  3.5804331332e+01  7.4504027595e+01  8.2908044869e+01  1.5000000000e+00 0. 9.
      -13     1     4     0     0     0  1.8451088957e+01  3.3779543576e+01 -6.6121937262e+01  7.6508966790e+01  1.0566000000e-01  3.105679e+05 9.
       14     1     4     0     0     0  2.3949592545e+01 -2.6462260408e+01 -2.4334993981e+01  4.3197524710e+01  0.0000000000e+00 0. 9.
#pdf    1   -1  3.057663e-01  1.154319e-01  7.840400e+01  1.356354e-01  3.264875e-01
</event>
<event>
     8  9999  1.000000e+00  1.095136e+02  7.833772e-03  1.230226e-01
        1    -1     0     0   101     0  0.0000000000e+00  0.0000000000e+00  1.9111940614e+02  1.9111940614e+02  0.0000000000e+00 0. 9.
       -1    -1     0     0     0   101  0.0000000000e+00  0.0000000000e+00 -7.6255871356e+01  7.6255871356e+01  0.0000000000e+00 0. 9.
      -24     2     1     2     0     0  3.7330043741e+01 -6.4680226297e+01  1.1374599429e+02  1.5798944512e+02  8.0283558158e+01 0. 9.
       24     2     1     2     0     0 -3.7330043741e+01  6.4680226297e+01  1.1175404913e+00  1.0938583238e+02  7.9918380797e+01 0. 9.
       11     1     3     0     0     0  5.0454696484e+01 -7.6415660472e+00  4.9830450261e+01  7.1324215400e+01  5.1100000000e-04 0. 9.
      -12     1     3     0     0     0 -1.3124652742e+01 -5.7038660250e+01  6.3915544034e+01  8.6665229717e+01  0.0000000000e+00 0. 9.
      -15     1     4     0     0     0  9.5656238921e-01 -8.0791571924e+00 -2.2377492467e+01  2.3876717846e+01  1.7769900000e+00  4.067650e-01 9.
       16     1     4     0     0     0 -3.8286606131e+01  7.2759383490e+01  2.3495032958e+01  8.5509114535e+01  0.0000000000e+00 0. 9.
#pdf    1   -1  1.950198e-01  7.781211e-02  1.093801e+02  2.318535e-01  3.703323e-01
</event>
<event>
     8  9999  1.000000e+00  8.829258e+01  7.814652e-03  1.271331e-01
        2    -1     0     0   101     0  0.0000000000e+00  0.0000000000e+00  5.2617421135e+01  5.2617421135e+01  0.0000000000e+00 0. 9.
       -2    -1     0     0     0   101  0.0000000000e+00  0.0000000000e+00 -1.5650864496e+02  1.5650864496e+02  0.0000000000e+00 0. 9.
      -24     2     1     2     0     0 -3.6723246180e+01 -7.7955783324e+00 -7.6478447325e+01  1.1734367616e+02  8.0692115962e+01 0. 9.
       24     2     1     2     0     0  3.6723246180e+01  7.7955783324e+00 -2.7412776503e+01  9.1782389935e+01  7.9140248515e+01 0. 9.
        1     1     3     0   102     0  2.7146148946e+00 -1.3921300112e+01  1.3078376559e+01  1.9295713624e+01  3.3000000000e-01 0. 9.
       -2     1     3     0     0   102 -3.9437861075e+01  6.1257217796e+00 -8.9556823885e+01  9.8047962538e+01  3.3000000000e-01 0. 9.
       -3     1     4     0     0   103  1.4071364172e+00  3.4668632326e+00 -4.9652925396e+01  4.9796206422e+01  5.0000000000e-01 0. 9.
        4     1     4     0   103     0  3.5316109763e+01  4.3287150997e+00  2.2240148894e+01  4.1986183513e+01  1.5000000000e+00 0. 9.
#pdf    2   -2  5.369125e-02  1.597027e-01  8.759307e+01  5.805357e-01  5.330533e-01
</event>
<event>
     8  9999  1.000000e+00  9.996415e+01  7.825662e-03  1.247308e-01
        1    -1     0     0   101     0  0.0000000000e+00  0.0000000000e+00  7.8936170873e+01  7.8936170873e+01  0.0000000000e+00 0. 9.
       -1    -1     0     0     0   101  0.0000000000e+00  0.0000000000e+00 -1.6148337302e+02  1.6148337302e+02  0.0000000000e+00 0. 9.
       23     2     1     2     0     0 -1.2082790892e+01 -3.9902869656e+01 -9.6995393631e+01  1.3895296433e+02  9.0341502467e+01 0. 9.
       23     2     1     2     0     0  1.2082790892e+01  3.9902869656e+01  1.4448191485e+01  1.0146657956e+02  9.1370037146e+01 0. 9.
        1     1     3     0   102     0 -1.7885278841e+01  1.8212304092e+01  2.3535919676e-01  2.5529111099e+01  3.3000000000e-01 0. 9.
       -1     1     3     0     0   102  5.8024879489e+00 -5.8115173749e+01 -9.7230752828e+01  1.1342385323e+02  3.3000000000e-01 0. 9.
        1     1     4     0   103     0 -1.2278120130e+01  5.9362147585e+01  2.8833695187e+01  6.7127547832e+01  3.3000000000e-01 0. 9.
       -1     1     4     0     0   103  2.4360911022e+01 -1.9459277929e+01 -1.4385503701e+01  3.4339031729e+01  3.3000000000e-01 0. 9.
#pdf    1   -1  8.054711e-02  1.647790e-01  9.949784e+01  3.673994e-01  2.662097e-01
</event>
<event>
     8  9999  1.000000e+00  1.247364e+02  7.845370e-03  1.206651e-01
        2    -1     0     0   101     0  0.0000000000e+00  0.0000000000e+00  7.2925718384e+01  7.2925718384e+01  0.0000000000e+00 0. 9.
       -2    -1     0     0     0   101  0.0000000000e+00  0.0000000000e+00 -2.3190633556e+02  2.3190633556e+02  0.0000000000e+00 0. 9.
       23     2     1     2     0     0  8.0979339005e+01 -3.7576197748e+00 -3.6823169685e+01  1.3076440399e+02  9.5768525478e+01 0. 9.
       23     2     1     2     0     0 -8.0979339005e+01  3.7576197748e+00 -1.2215744749e+02  1.7406764996e+02  9.3836729122e+01 0. 9.
        3     1     3     0   104     0 -8.1610313256e+00  3.3917155617e+00 -4.0307999811e+01  4.1268523302e+01  5.0000000000e-01 0. 9.
       -3     1     3     0     0   104  8.9140370331e+01 -7.1493353365e+00  3.4848301263e+00  8.9495880684e+01  5.0000000000e-01 0. 9.
       11     1     4     0     0     0 -8.0258608559e+01 -4.6692250308e-01 -3.6272518780e+01  8.8075864363e+01  5.1100000000e-04 0. 9.
      -11     1     4     0     0     0 -7.2073044635e-01  4.2245422778e+00 -8.5884928712e+01  8.5991785595e+01  5.1100000000e-04 0. 9.
#pdf    2   -2  7.441400e-02  2.366391e-01  1.240045e+02  5.725192e-01  4.353427e-01
</event>
<event>
     8  9999  1.000000e+00  8.389749e+01  7.810133e-03  1.281481e-01
        2    -1     0     0   101     0  0.0000000000e+00  0.0000000000e+00  2.5436729673e+01  2.5436729673e+01  0.0000000000e+00 0. 9.
       -2    -1     0     0     0   101  0.0000000000e+00  0.0000000000e+00 -3.1527337566e+02  3.1527337566e+02  0.0000000000e+00 0. 9.
      -24     2     1     2     0     0 -2.0122999988e+01 -1.6205545690e+01 -2.0398196474e+02  2.2043500736e+02  7.9469463882e+01 0. 9.
       24     2     1     2     0     0  2.0122999988e+01  1.6205545690e+01 -8.5854681250e+01  1.2027509798e+02  8.0171803408e+01 0. 9.
        3     1     3     0   102     0  2.7111817166e+01 -1.4510772240e+01 -1.2175984779e+02  1.2558393080e+02  5.0000000000e-01 0. 9.
       -4     1     3     0     0   102 -4.7234817154e+01 -1.6947734502e+00 -8.2222116953e+01  9.4851076561e+01  1.5000000000e+00 0. 9.
       -3     1     4     0     0   103 -2.1662141345e+01  3.2735901268e+01 -4.1108149779e+01  5.6842040584e+01  5.0000000000e-01 0. 9.
        4     1     4     0   103     0  4.1785141333e+01 -1.6530355578e+01 -4.4746531471e+01  6.3433057395e+01  1.5000000000e+00 0. 9.
#pdf    2   -2  2.595585e-02  3.217075e-01  8.356405e+01  6.114071e-01  3.312233e-01
</event>
<event>
     8  9999  1.000000e+00  8.140203e+01  7.807464e-03  1.287561e-01
        1    -1     0     0   101     0  0.0000000000e+00  0.0000000000e+00  4.2397575153e+01  4.2397575153e+01  0.0000000000e+00 0. 9.
       -1    -1     0     0     0   101  0.0000000000e+00  0.0000000000e+00 -2.6015048102e+02  2.6015048102e+02  0.0000000000e+00 0. 9.
      -24     2     1     2     0     0 -8.4329005760e+00 -3.2330210639e+01 -2.0040582371e+02  2.1465432725e+02  6.9264924006e+01 0. 9.
       24     2     1     2     0     0  8.4329005760e+00  3.2330210639e+01 -1.7347082154e+01  8.7893728923e+01  7.9423107422e+01 0. 9.
        3     1     3     0   102     0  2.0351433433e+01  1.0552100944e+01 -8.8207572275e+01  9.1139198393e+01  5.0000000000e-01 0. 9.
       -2     1     3     0     0   102 -2.8784334009e+01 -4.2882311583e+01 -1.1219825144e+02  1.2351512886e+02  3.3000000000e-01 0. 9.
       -3     1     4     0     0   103  1.6696520456e+01  3.0250066701e+01 -4.6244332413e+01  5.7728923523e+01  5.0000000000e-01 0. 9.
        4     1     4     0   103     0 -8.2636198803e+00  2.0801439377e+00  2.8897250258e+01  3.0164805400e+01  1.5000000000e+00 0. 9.
#pdf    1   -1  4.326283e-02  2.654597e-01  7.690244e+01  4.323666e-01  1.696569e-01
</event>
<event>
     8  9999  1.000000e+00  8.881248e+01  7.815172e-03  1.270174e-01
        2    -1     0     0   101     0  0.0000000000e+00  0.0000000000e+00  5.3648363607e+02  5.3648363607e+02  0.0000000000e+00 0. 9.
       -1    -1     0     0     0   101  0.0000000000e+00  0.0000000000e+00 -2.1522082652e+01  2.1522082652e+01  0.0000000000e+00 0. 9.
       23     2     1     2     0     0 -1.4798757950e+01  1.7820739416e+01  1.1105071276e+02  1.4546204115e+02  9.1051428438e+01 0. 9.
       24     2     1     2     0     0  1.4798757950e+01 -1.7820739416e+01  4.0391084065e+02  4.1254367757e+02  8.0695332673e+01 0. 9.
        2     1     3     0   102     0  3.7108128827e+01  1.1871879604e+01  6.5170001622e+01  7.5928866459e+01  3.3000000000e-01 0. 9.
       -2     1     3     0     0   102 -5.1906886777e+01  5.9488598122e+00  4.5880711142e+01  6.9533174693e+01  3.3000000000e-01 0. 9.
       -3     1     4     0     0   103  9.4346945464e+00 -4.5604980339e+01  1.5019194279e+02  1.5724724917e+02  5.0000000000e-01 0. 9.
        4     1     4     0   103     0  5.3640634040e+00  2.7784240923e+01  2.5371889786e+02  2.5529642840e+02  1.5000000000e+00 0. 9.
#pdf    2   -1  5.474323e-01  2.196131e-02  8.395427e+01  8.907144e-02  5.095099e-01
</event>
<event>
     8  9999  1.000000e+00  9.490215e+01  7.821050e-03  1.257252e-01
        2    -1     0     0   101     0  0.0000000000e+00  0.0000000000e+00  1.3799595139e+02  1.3799595139e+02  0.0000000000e+00 0. 9.
       -2    -1     0     0     0   101  0.0000000000e+00  0.0000000000e+00 -2.4252908984e+02  2.4252908984e+02  0.0000000000e+00 0. 9.
      -24     2     1     2     0     0 -3.0948799745e+01 -3.8298529405e+01 -2.1491971103e+02  2.3492160168e+02  8.1074479253e+01 0. 9.
       24     2     1     2     0     0  3.0948799745e+01  3.8298529405e+01  1.1038657259e+02  1.4560343955e+02  8.1182268006e+01 0. 9.
        1     1     3     0   102     0  6.6364317632e-02  2.0370219700e+01 -1.0140627294e+02  1.0343254491e+02  3.3000000000e-01 0. 9.
       -2     1     3     0     0   102 -3.1015164063e+01 -5.8668749104e+01 -1.1351343809e+02  1.3148905677e+02  3.3000000000e-01 0. 9.
       -3     1     4     0     0   103 -2.1855917675e+01 -8.6930161955e+00  3.5741237140e+01  4.2789434447e+01  5.0000000000e-01 0. 9.
        4     1     4     0   103     0  5.2804717420e+01  4.6991545600e+01  7.4645335452e+01  1.0281400510e+02  1.5000000000e+00 0. 9.
#pdf    2   -2  1.408122e-01  2.474787e-01  9.485608e+01  5.458267e-01  4.298583e-01
</event>
<event>
     8  9999  1.000000e+00  1.045356e+02  7.829634e-03  1.238877e-01
        2    -1     0     0   101     0  0.0000000000e+00  0.0000000000e+00  1.6527659796e+02  1.6527659796e+02  0.0000000000e+00 0. 9.
       -3    -1     0     0     0   101  0.0000000000e+00  0.0000000000e+00 -7.4968140240e+01  7.4968140240e+01  0.0000000000e+00 0. 9.
       23     2     1     2     0     0  4.9568991742e+01 -3.0760809631e+01  8.7288978845e+01  1.3815827284e+02  8.9805513050e+01 0. 9.
       24     2     1     2     0     0 -4.9568991742e+01  3.0760809631e+01  3.0194788781e+00  1.0208646537e+02  8.3721065490e+01 0. 9.
        3     1     3     0   102     0  5.0197341548e+01 -2.7037021827e+01  1.0530149237e+02  1.1974735047e+02  5.0000000000e-01 0. 9.
       -3     1     3     0     0   102 -6.2834980532e-01 -3.7237878038e+00 -1.8012513526e+01  1.8410922373e+01  5.0000000000e-01 0. 9.
      -13     1     4     0     0     0 -4.8812989509e+01  5.7393953865e+01  7.7779023688e-01  7.5348457229e+01  1.0566000000e-01  4.735569e+05 9.
       14     1     4     0     0     0 -7.5600223342e-01 -2.6633144235e+01  2.2416886412e+00  2.6738008137e+01  0.0000000000e+00 0. 9.
#pdf    2   -3  1.686496e-01  7.649810e-02  1.020418e+02  5.208543e-01  8.320068e-02
</event>
<event>
     8  9999  1.000000e+00  1.120496e+02  7.835809e-03  1.226012e-01
        1    -1     0     0   101     0  0.0000000000e+00  0.0000000000e+00  1.1718899638e+02  1.1718899638e+02  0.0000000000e+00 0. 9.
       -1    -1     0     0     0   101  0.0000000000e+00  0.0000000000e+00 -3.4623436897e+02  3.4623436897e+02  0.0000000000e+00 0. 9.
      -24     2     1     2     0     0 -9.8253457775e+00  7.7266926032e+01  7.8036909060e+01  1.3653052372e+02  8.0523968191e+01 0. 9.
       24     2     1     2     0     0  9.8253457775e+00 -7.7266926032e+01 -3.0708228165e+02  3.2689284163e+02  8.0577210958e+01 0. 9.
       15     1     3     0     0     0  2.3999340713e+01  4.9969773796e+00  4.2686440141e+01  4.9256755912e+01  1.7769900000e+00  6.488052e-02 9.
      -16     1     3     0     0     0 -3.3824686490e+01  7.2269948652e+01  3.5350468919e+01  8.7273767806e+01  0.0000000000e+00 0. 9.
       -3     1     4     0     0   102 -3.1198581879e+01 -5.8778603597e+01 -1.6777968417e+02  1.8049528573e+02  5.0000000000e-01 0. 9.
        4     1     4     0   102     0  4.1023927657e+01 -1.8488322435e+01 -1.3930259748e+02  1.4639755589e+02  1.5000000000e+00 0. 9.
#pdf    1   -1  1.195806e-01  3.533004e-01  1.120305e+02  3.162059e-01  9.698395e-02
</event>
<event>
     8  9999  1.000000e+00  1.044307e+02  7.829545e-03  1.239065e-01
        1    -1     0     0   101     0  0.0000000000e+00  0.0000000000e+00  7.5402048941e+01  7.5402048941e+01  0.0000000000e+00 0. 9.
       -1    -1     0     0     0   101  0.0000000000e+00  0.0000000000e+00 -1.4792068523e+02  1.4792068523e+02  0.0000000000e+00 0. 9.
       23     2     1     2     0     0 -1.0486114214e+01  3.0566290969e+01 -2.0041773521e+01  1.0744479585e+02  1.0049106793e+02 0. 9.
       23     2     1     2     0     0  1.0486114214e+01 -3.0566290969e+01 -5.2476862765e+01  1.1587793832e+02  9.8130620747e+01 0. 9.
       15     1     3     0     0     0  1.1218697349e+01  4.0608691775e+01  3.0137116796e+01  5.1829803396e+01  1.7769900000e+00  1.665527e-01 9.
      -15     1     3     0     0     0 -2.1704811563e+01 -1.0042400806e+01 -5.0178890316e+01  5.5614992455e+01  1.7769900000e+00  9.377265e-02 9.
       11     1     4     0     0     0 -2.0974545725e+01 -5.6671452706e+01 -4.2260832046e+01  7.3739833507e+01  5.1100000000e-04 0. 9.
      -11     1     4     0     0     0  3.1460659939e+01  2.6105161737e+01 -1.0216030719e+01  4.2138104810e+01  5.1100000000e-04 0. 9.
#pdf    1   -1  7.694087e-02  1.509395e-01  1.033144e+02  3.721180e-01  2.810386e-01
</event>
<event>
     8  9999  1.000000e+00  9.897070e+01  7.824775e-03  1.249207e-01
        2    -1     0     0   101     0  0.0000000000e+00  0.0000000000e+00  1.5945771780e+02  1.5945771780e+02  0.0000000000e+00 0. 9.
       -2    -1     0     0     0   101  0.0000000000e+00  0.0000000000e+00 -8.1145973768e+01  8.1145973768e+01  0.0000000000e+00 0. 9.
      -24     2     1     2     0     0 -5.3169737846e+01 -1.2036938740e+01  9.7933723150e+01  1.3808062639e+02  8.0643265907e+01 0. 9.
       24     2     1     2     0     0  5.3169737846e+01  1.2036938740e+01 -1.9621979121e+01  1.0252306518e+02  8.4581605045e+01 0. 9.
        3     1     3     0   102     0 -1.0079625314e+01  3.2930572739e+01  2.7705351815e+01  4.4202465843e+01  5.0000000000e-01 0. 9.
       -4     1     3     0     0   102 -4.3090112532e+01 -4.4967511479e+01  7.0228371335e+01  9.3878160543e+01  1.5000000000e+00 0. 9.
       -3     1     4     0     0   103  6.6887746478e+01 -1.0785482604e+01  2.6071934160e+00  6.7803722032e+01  5.0000000000e-01 0. 9.
        4     1     4     0   103     0 -1.3718008632e+01  2.2822421344e+01 -2.2229172537e+01  3.4719343146e+01  1.5000000000e+00 0. 9.
#pdf    2   -2  1.627120e-01  8.280201e-02  9.734087e+01  5.276141e-01  5.720313e-01
</event>
<event>
     8  9999  1.000000e+00  1.269706e+02  7.846955e-03  1.203505e-01
        1    -1     0     0   101     0  0.0000000000e+00  0.0000000000e+00  1.8297355113e+02  1.8297355113e+02  0.0000000000e+00 0. 9.
       -1    -1     0     0     0   101  0.0000000000e+00  0.0000000000e+00 -2.7755910055e+02  2.7755910055e+02  0.0000000000e+00 0. 9.
       23     2     1     2     0     0 -4.7835463321e+01  7.4778467430e+01 -2.3753455867e+02  2.6934962190e+02  9.0810250025e+01 0. 9.
       23     2     1     2     0     0  4.7835463321e+01 -7.4778467430e+01  1.4294900926e+02  1.9118302978e+02  9.0755059839e+01 0. 9.
        4     1     3     0   102     0  1.7179423715e+01  5.0784273664e+01 -7.1120522979e+01  8.9076112620e+01  1.5000000000e+00 0. 9.
       -4     1     3     0     0   102 -6.5014887036e+01  2.3994193765e+01 -1.6641403569e+02  1.8027350928e+02  1.5000000000e+00 0. 9.
        3     1     4     0   103     0  5.6891923158e+01 -5.7895193705e+01  1.5016876047e+02  1.7070281484e+02  5.0000000000e-01 0. 9.
       -3     1     4     0     0   103 -9.0564598368e+00 -1.6883273724e+01 -7.2197512098e+00  2.0480214939e+01  5.0000000000e-01 0. 9.
#pdf    1   -1  1.867077e-01  2.832236e-01  1.269509e+02  2.380462e-01  1.460369e-01
</event>
<event>
     8  9999  1.000000e+00  1.133193e+02  7.836813e-03  1.223949e-01
        1    -1     0     0   101     0  0.0000000000e+00  0.0000000000e+00  1.0279011631e+02  1.0279011631e+02  0.0000000000e+00 0. 9.
       -1    -1     0     0     0   101  0.0000000000e+00  0.0000000000e+00 -3.5177666368e+02  3.5177666368e+02  0.0000000000e+00 0. 9.
      -24     2     1     2     0     0 -7.7650604991e+01  2.3417576579e+01  5.8518701499e+01  1.2639311986e+02  7.7283782093e+01 0. 9.
       24     2     1     2     0     0  7.7650604991e+01 -2.3417576579e+01 -3.0750524887e+02  3.2817366013e+02  8.0996751612e+01 0. 9.
        3     1     3     0   102     0 -8.1875689657e+01  2.7184388607e+01  7.1566152847e+01  1.1209185418e+02  5.0000000000e-01 0. 9.
       -4     1     3     0     0   102  4.2250846657e+00 -3.7668120286e+00 -1.3047451348e+01  1.4301265678e+01  1.5000000000e+00 0. 9.
      -13     1     4     0     0     0  4.3812873733e+01 -2.9826993923e+01 -2.7743948301e+02  2.8245689117e+02  1.0566000000e-01  2.987747e+05 9.
       14     1     4     0     0     0  3.3837731258e+01  6.4094173444e+00 -3.0065765856e+01  4.5716768958e+01  0.0000000000e+00 0. 9.
#pdf    1   -1  1.048879e-01  3.589558e-01  1.120303e+02  3.341713e-01  9.347563e-02
</event>
<event>
     8  9999  1.000000e+00  8.443694e+01  7.810700e-03  1.280198e-01
        1    -1     0     0   101     0  0.0000000000e+00  0.0000000000e+00  2.2493805083e+02  2.2493805083e+02  0.0000000000e+00 0. 9.
       -1    -1     0     0     0   101  0.0000000000e+00  0.0000000000e+00 -4.0703046367e+01  4.0703046367e+01  0.0000000000e+00 0. 9.
      -24     2     1     2     0     0  4.0841674596e+00 -2.5861449711e+01  1.5408946858e+02  1.7542520546e+02  7.9655152875e+01 0. 9.
       24     2     1     2     0     0 -4.0841674596e+00  2.5861449711e+01  3.0145535889e+01  9.0215891740e+01  8.0899065405e+01 0. 9.
       15     1     3     0     0     0  1.6947601657e+01 -5.1659277120e+01  9.0197669923e+01  1.0533128437e+02  1.7769900000e+00  7.495502e-02 9.
      -16     1     3     0     0     0 -1.2863434197e+01  2.5797827408e+01  6.3891798652e+01  7.0093921087e+01  0.0000000000e+00 0. 9.
      -11     1     4     0     0     0 -1.5316566528e+01 -1.7979320865e+01 -1.3615113130e+01  2.7262143987e+01  5.1100000000e-04 0. 9.
       12     1     4     0     0     0  1.1232399069e+01  4.3840770576e+01  4.3760649019e+01  6.2953747753e+01  0.0000000000e+00 0. 9.
#pdf    1   -1  2.295286e-01  4.153372e-02  8.384771e+01  2.016724e-01  4.366333e-01
</event>
<event>
     8  9999  1.000000e+00  9.455205e+01  7.820722e-03  1.257965e-01
       -1    -1     0     0     0   101  0.0000000000e+00  0.0000000000e+00  1.5272773094e+02  1.5272773094e+02  0.0000000000e+00 0. 9.
        2    -1     0     0   101     0  0.0000000000e+00  0.0000000000e+00 -1.3832839899e+02  1.3832839899e+02  0.0000000000e+00 0. 9.
       23     2     1     2     0     0 -4.1230048875e+01 -2.5285797020e+00  1.1770912123e+02  1.5426323457e+02  9.0749091861e+01 0. 9.
       24     2     1     2     0     0  4.1230048875e+01  2.5285797020e+00 -1.0330978927e+02  1.3679289537e+02  7.9580607046e+01 0. 9.
        4     1     3     0   102     0 -4.5655626804e+00  5.8715542922e-01  1.1733429196e+02  1.1743413126e+02  1.5000000000e+00 0. 9.
       -4     1     3     0     0   102 -3.6664486195e+01 -3.1157351312e+00  3.7482926110e-01  3.6829103306e+01  1.5000000000e+00 0. 9.
      -11     1     4     0     0     0  1.1070113064e+01 -1.2299997180e+00  1.2685759711e+01  1.6881611364e+01  5.1100000000e-04 0. 9.
       12     1     4     0     0     0  3.0159935811e+01  3.7585794200e+00 -1.1599554898e+02  1.1991128400e+02  0.0000000000e+00 0. 9.
#pdf   -1    2  1.558446e-01  1.411514e-01  8.966261e+01  6.857385e-02  5.340614e-02
</event>
<event>
     8  9999  1.000000e+00  1.102714e+02  7.834385e-03  1.228953e-01
        2    -1     0     0   101     0  0.0000000000e+00  0.0000000000e+00  4.0161773424e+01  4.0161773424e+01  0.0000000000e+00 0. 9.
       -2    -1     0     0     0   101  0.0000000000e+00  0.0000000000e+00 -3.0410494164e+02  3.0410494164e+02  0.0000000000e+00 0. 9.
      -24     2     1     2     0     0  2.5579303287e+01 -7.1326352925e+01 -1.2034469761e+02  1.6309822890e+02  7.9852593261e+01 0. 9.
       24     2     1     2     0     0 -2.5579303287e+01  7.1326352925e+01 -1.4359847061e+02  1.8116848616e+02  8.0372571431e+01 0. 9.
        3     1     3     0   102     0 -1.7800483992e+01  7.8260341063e+00 -2.6622127914e+01  3.2971074214e+01  5.0000000000e-01 0. 9.
       -4     1     3     0     0   102  4.3379787279e+01 -7.9152387032e+01 -9.3722569693e+01  1.3012715469e+02  1.5000000000e+00 0. 9.
       -3     1     4     0     0   103  2.2343132042e+01 -1.4203291609e+00 -3.9641679428e+01  4.5529612696e+01  5.0000000000e-01 0. 9.
        4     1     4     0   103     0 -4.7922435329e+01  7.2746682086e+01 -1.0395679118e+02  1.3563887347e+02  1.5000000000e+00 0. 9.
#pdf    2   -2  4.098140e-02  3.103112e-01  1.100826e+02  5.899117e-01  3.374378e-01
</event>
<event>
     8  9999  1.000000e+00  8.197713e+01  7.808086e-03  1.286138e-01
        2    -1     0     0   101     0  0.0000000000e+00  0.0000000000e+00  6.7879426192e+01  6.7879426192e+01  0.0000000000e+00 0. 9.
       -2    -1     0     0     0   101  0.0000000000e+00  0.0000000000e+00 -1.1683638571e+02  1.1683638571e+02  0.0000000000e+00 0. 9.
      -24     2     1     2     0     0 -1.3399545289e+01  3.0598527450e+00 -6.0420907139e+01  1.0140758512e+02  8.0273917231e+01 0. 9.
       24     2     1     2     0     0  1.3399545289e+01 -3.0598527450e+00  1.1463947619e+01  8.3308226783e+01  8.1362940224e+01 0. 9.
        1     1     3     0   102     0 -8.5240697578e+00 -3.0959864873e+01 -5.8803097565e+01  6.7000643142e+01  3.3000000000e-01 0. 9.
       -2     1     3     0     0   102 -4.8754755315e+00  3.4019717618e+01 -1.6178095735e+00  3.4406941978e+01  3.3000000000e-01 0. 9.
       -1     1     4     0     0   103 -1.8336900619e+01  1.8854552255e+00 -2.7314377300e+01  3.2954225419e+01  3.3000000000e-01 0. 9.
        2     1     4     0   103     0  3.1736445908e+01 -4.9453079706e+00  3.8778324919e+01  5.0354001364e+01  3.3000000000e-01 0. 9.
#pdf    2   -2  6.926472e-02  1.192208e-01  8.144208e+01  5.763432e-01  5.617769e-01
</event>
<event>
     8  9999  1.000000e+00  1.462839e+02  7.859618e-03  1.178990e-01
        2    -1     0     0   101     0  0.0000000000e+00  0.0000000000e+00  1.6884527168e+02  1.6884527168e+02  0.0000000000e+00 0. 9.
       -1    -1     0     0     0   101  0.0000000000e+00  0.0000000000e+00 -2.2434893297e+02  2.2434893297e+02  0.0000000000e+00 0. 9.
       23     2     1     2     0     0  6.9204640298e-01  1.1810509363e+02 -1.5772981848e+02  2.1748472634e+02  9.2041395502e+01 0. 9.
       24     2     1     2     0     0 -6.9204640298e-01 -1.1810509363e+02  1.0222615719e+02  1.7570947831e+02  8.0463292777e+01 0. 9.
        1     1     3     0   102     0 -1.7178303439e+01 -2.5757685725e+00  8.6575858606e-01  1.7395031782e+01  3.3000000000e-01 0. 9.
       -1     1     3     0     0   102  1.7870349842e+01  1.2068086220e+02 -1.5859557706e+02  2.0008969456e+02  3.3000000000e-01 0. 9.
       -1     1     4     0     0   103  2.9781390423e+01 -1.5893743169e+01  3.9552912418e+01  5.2000808342e+01  3.3000000000e-01 0. 9.
        2     1     4     0   103     0 -3.0473436826e+01 -1.0221135046e+02  6.2673244771e+01  1.2370866997e+02  3.3000000000e-01 0. 9.
#pdf    2   -1  1.722911e-01  2.289275e-01  1.429113e+02  5.081140e-01  1.928734e-01
</event>
<event>
     8  9999  1.000000e+00  7.886082e+01  7.804661e-03  1.294008e-01
        1    -1     0     0   101     0  0.0000000000e+00  0.0000000000e+00  4.8926130557e+01  4.8926130557e+01  0.0000000000e+00 0. 9.
       -1    -1     0     0     0   101  0.0000000000e+00  0.0000000000e+00 -1.6197312689e+02  1.6197312689e+02  0.0000000000e+00 0. 9.
      -24     2     1     2     0     0  7.8396542244e+00 -7.8441421368e+00 -6.3901405570e+00  7.6841508451e+01  7.5768019509e+01 0. 9.
       24     2     1     2     0     0 -7.8396542244e+00  7.8441421368e+00 -1.0665685577e+02  1.3405774899e+02  8.0453740978e+01 0. 9.
        1     1     3     0   102     0  1.8845151197e+01 -1.3974080388e+01  3.0141561461e+01  3.8197346422e+01  3.3000000000e-01 0. 9.
       -2     1     3     0     0   102 -1.1005496973e+01  6.1299382513e+00 -3.6531702018e+01  3.8644162029e+01  3.3000000000e-01 0. 9.
       -1     1     4     0     0   103 -3.2729347916e+01  3.2427839916e+01 -6.4690765299e+01  7.9421527507e+01  3.3000000000e-01 0. 9.
        2     1     4     0   103     0  2.4889693691e+01 -2.4583697779e+01 -4.1966090473e+01  5.4636221484e+01  3.3000000000e-01 0. 9.
#pdf    1   -1  4.992462e-02  1.652787e-01  7.657535e+01  4.181959e-01  2.703824e-01
</event>
<event>
     8  9999  1.000000e+00  1.093618e+02  7.833648e-03  1.230482e-01
        1    -1     0     0   101     0  0.0000000000e+00  0.0000000000e+00  1.1299545670e+02  1.1299545670e+02  0.0000000000e+00 0. 9.
       -1    -1     0     0     0   101  0.0000000000e+00  0.0000000000e+00 -1.8747190665e+02  1.8747190665e+02  0.0000000000e+00 0. 9.
      -24     2     1     2     0     0 -7.6242757970e+01 -2.5661756827e+00  6.1771993267e+01  1.2614370406e+02  7.9226962093e+01 0. 9.
       24     2     1     2     0     0  7.6242757970e+01  2.5661756827e+00 -1.3624844322e+02  1.7432365928e+02  7.7495525704e+01 0. 9.
       11     1     3     0     0     0 -8.3447277797e+01 -2.2069157986e+01  6.0315255130e+01  1.0530159499e+02  5.1100000000e-04 0. 9.
      -12     1     3     0     0     0  7.2045198266e+00  1.9502982304e+01  1.4567381371e+00  2.0842109074e+01  0.0000000000e+00 0. 9.
      -13     1     4     0     0     0  5.1605915009e+01  2.9310016761e+01 -1.2123851593e+02  1.3498531941e+02  1.0566000000e-01  1.020804e+05 9.
       14     1     4     0     0     0  2.4636842961e+01 -2.6743841078e+01 -1.5009927291e+01  3.9338339873e+01  0.0000000000e+00 0. 9.
#pdf    1   -1  1.153015e-01  1.912979e-01  1.087433e+02  3.217998e-01  2.358863e-01
</event>
<event>
     8  9999  1.000000e+00  8.428194e+01  7.810538e-03  1.280566e-01
        2    -1     0     0   101     0  0.0000000000e+00  0.0000000000e+00  1.0251294310e+02  1.0251294310e+02  0.0000000000e+00 0. 9.
       -2    -1     0     0     0   101  0.0000000000e+00  0.0000000000e+00 -7.1859137697e+01  7.1859137697e+01  0.0000000000e+00 0. 9.
      -24     2     1     2     0     0 -1.5999998492e+01  5.3211086672e+00 -6.8808874106e-01  8.6238630282e+01  8.4571352937e+01 0. 9.
       24     2     1     2     0     0  1.5999998492e+01 -5.3211086672e+00  3.1341894141e+01  8.8133450512e+01  8.0628013876e+01 0. 9.
       13     1     3     0     0     0 -1.8532296332e+01 -2.2309717018e+01  3.2115976674e+01  4.3273740334e+01  1.0566000000e-01  2.183389e+06 9.
      -14     1     3     0     0     0  2.5322978398e+00  2.7630825685e+01 -3.2804065415e+01  4.2964889947e+01  0.0000000000e+00 0. 9.
       -3     1     4     0     0   102 -1.5999874666e+01  2.7291378979e+01  2.8079362986e+01  4.2302671093e+01  5.0000000000e-01 0. 9.
        4     1     4     0   102     0  3.1999873158e+01 -3.2612487646e+01  3.2625311555e+00  4.5830779419e+01  1.5000000000e+00 0. 9.
#pdf    2   -2  1.046050e-01  7.332565e-02  8.237227e+01  5.675980e-01  5.754778e-01
</event>
<event>
     8  9999  1.000000e+00  1.030260e+02  7.828341e-03  1.241607e-01
        2    -1     0     0   101     0  0.0000000000e+00  0.0000000000e+00  1.8646029377e+02  1.8646029377e+02  0.0000000000e+00 0. 9.
       -2    -1     0     0     0   101  0.0000000000e+00  0.0000000000e+00 -6.3711777578e+01  6.3711777578e+01  0.0000000000e+00 0. 9.
      -24     2     1     2     0     0  1.0816302396e+01  6.3367362315e+01  2.1022329709e+01  1.0599675556e+02  8.1614697439e+01 0. 9.
       24     2     1     2     0     0 -1.0816302396e+01 -6.3367362315e+01  1.0172618649e+02  1.4417531579e+02  7.9409632051e+01 0. 9.
        1     1     3     0   102     0 -2.8805471989e+01  4.9039082507e+01  2.7826369072e+01  6.3316684573e+01  3.3000000000e-01 0. 9.
       -2     1     3     0     0   102  3.9621774385e+01  1.4328279808e+01 -6.8040393624e+00  4.2680070985e+01  3.3000000000e-01 0. 9.
      -13     1     4     0     0     0 -1.4851663023e+01 -7.9715718141e+01  6.5538227740e+01  1.0426139301e+02  1.0566000000e-01  3.283637e+05 9.
       14     1     4     0     0     0  4.0353606267e+00  1.6348355826e+01  3.6187958745e+01  3.9913922781e+01  0.0000000000e+00 0. 9.
#pdf    2   -2  1.902656e-01  6.501202e-02  1.021680e+02  4.985785e-01  5.765022e-01
</event>
<event>
     8  9999  1.000000e+00  8.889946e+01  7.815259e-03  1.269982e-01
        2    -1     0     0   101     0  0.0000000000e+00  0.0000000000e+00  1.9933068500e+02  1.9933068500e+02  0.0000000000e+00 0. 9.
       -2    -1     0     0     0   101  0.0000000000e+00  0.0000000000e+00 -4.2910006850e+01  4.2910006850e+01  0.0000000000e+00 0. 9.
      -24     2     1     2     0     0 -2.9985413036e+01  2.6219946940e+01  4.2927436150e+01  9.6469694900e+01  7.6661767832e+01 0. 9.
       24     2     1     2     0     0  2.9985413036e+01 -2.6219946940e+01  1.1349324200e+02  1.4577099695e+02  8.2352030696e+01 0. 9.
        3     1     3     0   102     0 -2.4166858372e+01 -1.8249747188e+01  4.1751713989e+01  5.1580480194e+01  5.0000000000e-01 0. 9.
       -4     1     3     0     0   102 -5.8185546638e+00  4.4469694129e+01  1.1757221608e+00  4.4889214705e+01  1.5000000000e+00 0. 9.
       -1     1     4     0     0   103  8.6301932723e+00 -1.8372861416e+00 -1.2707513539e+01  1.5474031686e+01  3.3000000000e-01 0. 9.
        2     1     4     0   103     0  2.1355219764e+01 -2.4382660799e+01  1.2620075554e+02  1.3029696526e+02  3.3000000000e-01 0. 9.
#pdf    2   -2  2.033987e-01  4.378572e-02  8.639234e+01  4.889153e-01  5.858417e-01
</event>
<event>
     8  9999  1.000000e+00  1.124156e+02  7.836100e-03  1.225415e-01
        2    -1     0     0   101     0  0.0000000000e+00  0.0000000000e+00  1.2138365045e+02  1.2138365045e+02  0.0000000000e+00 0. 9.
       -2    -1     0     0     0   101  0.0000000000e+00  0.0000000000e+00 -2.0508171597e+02  2.0508171597e+02  0.0000000000e+00 0. 9.
      -24     2     1     2     0     0 -7.4950557678e+01  1.3040951545e-01 -1.5684944133e+02  1.9459665769e+02  8.7455753588e+01 0. 9.
       24     2     1     2     0     0  7.4950557678e+01 -1.3040951545e-01  7.3151375811e+01  1.3186870873e+02  8.0128830366e+01 0. 9.
        1     1     3     0   102     0  8.0626860400e+00 -2.7143514533e+00 -8.3049842852e+01  8.3485087936e+01  3.3000000000e-01 0. 9.
       -2     1     3     0     0   102 -8.3013243718e+01  2.8447609687e+00 -7.3799598476e+01  1.1111156975e+02  3.3000000000e-01 0. 9.
       -1     1     4     0     0   103 -1.0422783305e+01  2.1401598724e+00  3.8086695236e+01  3.9546427779e+01  3.3000000000e-01 0. 9.
        2     1     4     0   103     0  8.5373340983e+01 -2.2705693878e+00  3.5064680576e+01  9.2322280950e+01  3.3000000000e-01 0. 9.
#pdf    2   -2  1.238609e-01  2.092671e-01  1.097189e+02  5.536178e-01  4.742972e-01
</event>
<event>
     8  9999  1.000000e+00  8.914565e+01  7.815504e-03  1.269438e-01
        1    -1     0     0   101     0  0.0000000000e+00  0.0000000000e+00  1.9910478588e+02  1.9910478588e+02  0.0000000000e+00 0. 9.
       -2    -1     0     0     0   101  0.0000000000e+00  0.0000000000e+00 -7.8727622722e+01  7.8727622722e+01  0.0000000000e+00 0. 9.
       23     2     1     2     0     0 -1.5292043545e+01 -2.5321596881e+01  1.5960431869e+02  1.8629743279e+02  9.1423000704e+01 0. 9.
      -24     2     1     2     0     0  1.5292043545e+01  2.5321596881e+01 -3.9227155526e+01  9.1534975812e+01  7.7232455625e+01 0. 9.
        1     1     3     0   102     0 -8.0173322625e-02 -5.1663809536e+01  1.4209845314e+02  1.5119932185e+02  3.3000000000e-01 0. 9.
       -1     1     3     0     0   102 -1.5211870222e+01  2.6342212656e+01  1.7505865550e+01  3.5098110945e+01  3.3000000000e-01 0. 9.
       15     1     4     0     0     0 -1.7389270564e+01 -2.0157108904e+01 -1.1729641251e+01  2.9145118759e+01  1.7769900000e+00  1.795314e-01 9.
      -16     1     4     0     0     0  3.2681314109e+01  4.5478705785e+01 -2.7497514275e+01  6.2389857053e+01  0.0000000000e+00 0. 9.
#pdf    1   -2  2.031681e-01  8.033431e-02  8.270358e+01  2.284781e-01  5.740466e-01
</event>
<event>
     8  9999  1.000000e+00  8.732330e+01  7.813675e-03  1.273512e-01
        2    -1     0     0   101     0  0.0000000000e+00  0.0000000000e+00  3.8890224119e+01  3.8890224119e+01  0.0000000000e+00 0. 9.
       -2    -1     0     0     0   101  0.0000000000e+00  0.0000000000e+00 -2.3389114582e+02  2.3389114582e+02  0.0000000000e+00 0. 9.
      -24     2     1     2     0     0  3.4039695902e+01  1.1136347963e+01 -1.5325614816e+02  1.7688719213e+02  8.0739783546e+01 0. 9.
       24     2     1     2     0     0 -3.4039695902e+01 -1.1136347963e+01 -4.1744773540e+01  9.5894177810e+01  7.8551563173e+01 0. 9.
        3     1     3     0   102     0 -9.4646965756e+00 -2.3526807024e+01 -1.9422920564e+01  3.1946689551e+01  5.0000000000e-01 0. 9.
       -4     1     3     0     0   102  4.3504392477e+01  3.4663154987e+01 -1.3383322760e+02  1.4494050258e+02  1.5000000000e+00 0. 9.
       -3     1     4     0     0   103 -5.3730599948e+01  1.1442784147e+01 -3.5028306202e+01  6.5154791959e+01  5.0000000000e-01 0. 9.
        4     1     4     0   103     0  1.9690904046e+01 -2.2579132110e+01 -6.7164673373e+00  3.0739385851e+01  1.5000000000e+00 0. 9.
#pdf    2   -2  3.968390e-02  2.386644e-01  8.633115e+01  5.892560e-01  4.449025e-01
</event>
<event>
     8  9999  1.000000e+00  7.469240e+01  7.799868e-03  1.305200e-01
        2    -1     0     0   101     0  0.0000000000e+00  0.0000000000e+00  5.2302962039e+01  5.2302962039e+01  0.0000000000e+00 0. 9.
       -2    -1     0     0     0   101  0.0000000000e+00  0.0000000000e+00 -1.4198692476e+02  1.4198692476e+02  0.0000000000e+00 0. 9.
      -24     2     1     2     0     0  1.3561103633e+01 -2.6543110908e+00 -9.4626977326e+01  1.2271419221e+02  7.6899669919e+01 0. 9.
       24     2     1     2     0     0 -1.3561103633e+01  2.6543110908e+00  4.9430146020e+00  7.1575694589e+01  7.0054962447e+01 0. 9.
       13     1     3     0     0     0 -1.1966573160e+01  3.2099630872e+01 -3.3561748453e+01  4.7958182811e+01  1.0566000000e-01  1.177603e+06 9.
      -14     1     3     0     0     0  2.5527676793e+01 -3.4753941963e+01 -6.1065228873e+01  7.4756009402e+01  0.0000000000e+00 0. 9.
      -15     1     4     0     0     0  2.4718037318e+01 -1.5299817443e+01  2.0131075511e+00  2.9193767796e+01  1.7769900000e+00  3.676735e-02 9.
       16     1     4     0     0     0 -3.8279140951e+01  1.7954128534e+01  2.9299070509e+00  4.2381926793e+01  0.0000000000e+00 0. 9.
#pdf    2   -2  5.337037e-02  1.448846e-01  7.140481e+01  5.802654e-01  5.497064e-01
</event>
<event>
     8  9999  1.000000e+00  8.209633e+01  7.808214e-03  1.285845e-01
        2    -1     0     0   101     0  0.0000000000e+00  0.0000000000e+00  1.5866891060e+02  1.5866891060e+02  0.0000000000e+00 0. 9.
       -2    -1     0     0     0   101  0.0000000000e+00  0.0000000000e+00 -8.3143536181e+01  8.3143536181e+01  0.0000000000e+00 0. 9.
      -24     2     1     2     0     0  1.4539734890e+01  5.4557817423e+00 -4.6708659824e+01  9.4768473944e+01  8.0982685223e+01 0. 9.
       24     2     1     2     0     0 -1.4539734890e+01 -5.4557817423e+00  1.2223403424e+02  1.4704397284e+02  8.0247126900e+01 0. 9.
        1     1     3     0   102     0 -1.6672915836e+01  3.5299299943e+01 -2.5736725854e+01  4.6760182385e+01  3.3000000000e-01 0. 9.
       -2     1     3     0     0   102  3.1212650726e+01 -2.9843518201e+01 -2.0971933969e+01  4.8008291559e+01  3.3000000000e-01 0. 9.
       -3     1     4     0     0   103  2.7952887463e+01 -1.4600654410e+01  8.1833210002e+01  8.7701010746e+01  5.0000000000e-01 0. 9.
        2     1     4     0   103     0 -4.2492622352e+01  9.1448726678e+00  4.0400824242e+01  5.9342962092e+01  3.3000000000e-01 0. 9.
#pdf    2   -2  1.619071e-01  8.484034e-02  8.173598e+01  5.330092e-01  5.731968e-01
</event>
<event>
     8  9999  1.000000e+00  1.474343e+02  7.860319e-03  1.177663e-01
        2    -1     0     0   101     0  0.0000000000e+00  0.0000000000e+00  1.0782332150e+02  1.0782332150e+02  0.0000000000e+00 0. 9.
       -2    -1     0     0     0   101  0.0000000000e+00  0.0000000000e+00 -2.1000227692e+02  2.1000227692e+02  0.0000000000e+00 0. 9.
       23     2     1     2     0     0  3.9878751464e+01 -1.0616241099e+02 -8.3376165534e+01  1.7080871729e+02  9.6763942649e+01 0. 9.
       23     2     1     2     0     0 -3.9878751464e+01  1.0616241099e+02 -1.8802789888e+01  1.4701688114e+02  9.1649583222e+01 0. 9.
        5     1     3     0   103     0  2.5492269926e+01 -1.1309853632e+02 -3.7419369994e+01  1.2191958003e+02  4.8000000000e+00 0. 9.
       -5     1     3     0     0   103  1.4386481538e+01  6.9361253288e+00 -4.5956795540e+01  4.8889137259e+01  4.8000000000e+00 0. 9.
       11     1     4     0     0     0  1.6289855987e+01  5.7177763247e+01 -3.7355330618e+01  7.0214505223e+01  5.1100000000e-04 0. 9.
      -11     1     4     0     0     0 -5.6168607451e+01  4.8984647748e+01  1.8552540730e+01  7.6802375912e+01  5.1100000000e-04 0. 9.
#pdf    2   -2  1.100238e-01  2.142880e-01  1.458095e+02  5.561587e-01  4.591980e-01
</event>
<event>
     8  9999  1.000000e+00  8.501408e+01  7.811303e-03  1.278838e-01
        2    -1     0     0   101     0  0.0000000000e+00  0.0000000000e+00  2.6753243217e+02  2.6753243217e+02  0.0000000000e+00 0. 9.
       -2    -1     0     0     0   101  0.0000000000e+00  0.0000000000e+00 -2.8365815952e+01  2.8365815952e+01  0.0000000000e+00 0. 9.
      -24     2     1     2     0     0 -3.4236807860e+01 -2.0432046880e+01  9.4787861617e+01  1.3065616245e+02  8.0601901498e+01 0. 9.
       24     2     1     2     0     0  3.4236807860e+01  2.0432046880e+01  1.4437875460e+02  1.6524208567e+02  6.9786062674e+01 0. 9.
        3     1     3     0   102     0  1.5041576932e+01 -3.3648202165e+01  5.3688905942e+01  6.5124489762e+01  5.0000000000e-01 0. 9.
       -4     1     3     0     0   102 -4.9278384792e+01  1.3216155285e+01  4.1098955675e+01  6.5531672692e+01  1.5000000000e+00 0. 9.
      -13     1     4     0     0     0  1.9591481109e+01  4.0665631533e+01  4.8893656513e+01  6.6544124693e+01  1.0566000000e-01  3.203978e+05 9.
       14     1     4     0     0     0  1.4645326751e+01 -2.0233584653e+01  9.5485098089e+01  9.8697960975e+01  0.0000000000e+00 0. 9.
#pdf    2   -2  2.729923e-01  2.894471e-02  8.037240e+01  4.007475e-01  6.036280e-01
</event>
<event>
     8  9999  1.000000e+00  9.491997e+01  7.821066e-03  1.257215e-01
        2    -1     0     0   101     0  0.0000000000e+00  0.0000000000e+00  5.8567472613e+01  5.8567472613e+01  0.0000000000e+00 0. 9.
       -1    -1     0     0     0   101  0.0000000000e+00  0.0000000000e+00 -1.7693517132e+02  1.7693517132e+02  0.0000000000e+00 0. 9.
       23     2     1     2     0     0 -2.4032599620e+01 -2.9562959314e+01 -1.0407006653e+02  1.4450935993e+02  9.2740724346e+01 0. 9.
       24     2     1     2     0     0  2.4032599620e+01  2.9562959314e+01 -1.4297632184e+01  9.0993284008e+01  8.1386860368e+01 0. 9.
        3     1     3     0   102     0  1.6687845850e+01 -2.3826272122e+01  3.5404929519e+00  2.9308028468e+01  5.0000000000e-01 0. 9.
       -3     1     3     0     0   102 -4.0720445470e+01 -5.7366871925e+00 -1.0761055948e+02  1.1520133146e+02  5.0000000000e-01 0. 9.
       -3     1     4     0     0   103 -2.3771921556e+01  3.3969051208e+01 -1.0733910201e+01  4.2830684359e+01  5.0000000000e-01 0. 9.
        4     1     4     0   103     0  4.7804521175e+01 -4.4060918943e+00 -3.5637219831e+00  4.8162599649e+01  1.5000000000e+00 0. 9.
#pdf    2   -1  5.976273e-02  1.805461e-01  8.986298e+01  5.784094e-01  2.508295e-01
</event>
<event>
     8  9999  1.000000e+00  8.904393e+01  7.815403e-03  1.269662e-01
        1    -1     0     0   101     0  0.0000000000e+00  0.0000000000e+00  7.8492411530e+01  7.8492411530e+01  0.0000000000e+00 0. 9.
       -1    -1     0     0     0   101  0.0000000000e+00  0.0000000000e+00 -1.4701673750e+02  1.4701673750e+02  0.0000000000e+00 0. 9.
      -24     2     1     2     0     0 -6.3437649632e+00 -1.2474369767e+01  2.5676049938e+01  1.0136610026e+02  9.7056547878e+01 0. 9.
       24     2     1     2     0     0  6.3437649632e+00  1.2474369767e+01 -9.4200375903e+01  1.2414304877e+02  7.9636251057e+01 0. 9.
       13     1     3     0     0     0  3.6340124235e+01  2.1193661212e+01  2.0377924917e+01  4.6744485161e+01  1.0566000000e-01  1.860460e+05 9.
      -14     1     3     0     0     0 -4.2683889198e+01 -3.3668030979e+01  5.2981250202e+00  5.4621615097e+01  0.0000000000e+00 0. 9.
       -1     1     4     0     0   102  1.6149580994e+01  4.0244819137e+01 -8.0977820415e+01  9.1858427663e+01  3.3000000000e-01 0. 9.
        2     1     4     0   102     0 -9.8058160312e+00 -2.7770449370e+01 -1.3222555488e+01  3.2284621105e+01  3.3000000000e-01 0. 9.
#pdf    1   -1  8.009430e-02  1.500171e-01  8.085658e+01  3.700894e-01  2.863248e-01
</event>
<event>
     8  9999  1.000000e+00  8.826212e+01  7.814622e-03  1.271399e-01
        1    -1     0     0   101     0  0.0000000000e+00  0.0000000000e+00  1.4409063530e+02  1.4409063530e+02  0.0000000000e+00 0. 9.
       -1    -1     0     0     0   101  0.0000000000e+00  0.0000000000e+00 -6.6753724812e+01  6.6753724812e+01  0.0000000000e+00 0. 9.
      -24     2     1     2     0     0 -2.8401142351e+01  5.8280832716e+00  8.5437704236e+01  1.2470733847e+02  8.6091390524e+01 0. 9.
       24     2     1     2     0     0  2.8401142351e+01 -5.8280832716e+00 -8.1007937475e+00  8.6137021640e+01  8.0705465715e+01 0. 9.
        1     1     3     0   102     0 -3.6185149265e+01  1.9847943839e+01  9.6679605999e+01  1.0512069738e+02  3.3000000000e-01 0. 9.
       -2     1     3     0     0   102  7.7840069141e+00 -1.4019860567e+01 -1.1241901763e+01  1.9586641091e+01  3.3000000000e-01 0. 9.
       -3     1     4     0     0   103  1.5965240149e+01  1.5307012233e+01 -4.0097745332e+01  4.5795989969e+01  5.0000000000e-01 0. 9.
        4     1     4     0   103     0  1.2435902202e+01 -2.1135095505e+01  3.1996951585e+01  4.0341031671e+01  1.5000000000e+00 0. 9.
#pdf    1   -1  1.470313e-01  6.811605e-02  8.575525e+01  2.886551e-01  3.866597e-01
</event>
<event>
     8  9999  1.000000e+00  8.644391e+01  7.812779e-03  1.275518e-01
        2    -1     0     0   101     0  0.0000000000e+00  0.0000000000e+00  3.4028925386e+01  3.4028925386e+01  0.0000000000e+00 0. 9.
       -2    -1     0     0     0   101  0.0000000000e+00  0.0000000000e+00 -2.9945011279e+02  2.9945011279e+02  0.0000000000e+00 0. 9.
      -24     2     1     2     0     0 -3.2410870534e+01  1.9673480964e+00 -2.1883697748e+02  2.3529854141e+02  8.0133924731e+01 0. 9.
       24     2     1     2     0     0  3.2410870534e+01 -1.9673480964e+00 -4.6584209924e+01  9.8180496758e+01  8.0093609871e+01 0. 9.
       13     1     3     0     0     0  1.4989537171e+01  1.3644904683e+01 -1.3779821873e+01  2.4510493738e+01  1.0566000000e-01  1.193943e+06 9.
      -14     1     3     0     0     0 -4.7400407705e+01 -1.1677556587e+01 -2.0505715560e+02  2.1078804767e+02  0.0000000000e+00 0. 9.
       -3     1     4     0     0   102  5.8290720566e+00 -3.9758500580e+01 -2.2436527301e+01  4.6025690725e+01  5.0000000000e-01 0. 9.
        4     1     4     0   102     0  2.6581798477e+01  3.7791152483e+01 -2.4147682623e+01  5.2154806033e+01  1.5000000000e+00 0. 9.
#pdf    2   -2  3.472339e-02  3.055613e-01  8.642524e+01  5.949577e-01  3.525158e-01
</event>
<event>
     8  9999  1.000000e+00  8.930058e+01  7.815657e-03  1.269096e-01
        2    -1     0     0   101     0  0.0000000000e+00  0.0000000000e+00  8.9594907528e+01  8.9594907528e+01  0.0000000000e+00 0. 9.
       -2    -1     0     0     0   101  0.0000000000e+00  0.0000000000e+00 -3.4047945440e+02  3.4047945440e+02  0.0000000000e+00 0. 9.
      -24     2     1     2     0     0 -2.7820350270e+01 -2.6067839521e+01 -3.1023619240e+02  3.2282476512e+02  8.0720689743e+01 0. 9.
       24     2     1     2     0     0  2.7820350270e+01  2.6067839521e+01  5.9351645522e+01  1.0724959681e+02  8.0785852995e+01 0. 9.
       15     1     3     0     0     0 -4.4164807207e+01 -1.3864735929e+01 -8.6173328748e+01  9.7835378975e+01  1.7769900000e+00  5.733669e-02 9.
      -16     1     3     0     0     0  1.6344456937e+01 -1.2203103592e+01 -2.2406286365e+02  2.2498938614e+02  0.0000000000e+00 0. 9.
      -11     1     4     0     0     0  3.1933930334e+01  1.6347942203e+01 -9.8857540754e+00  3.7212353523e+01  5.1100000000e-04 0. 9.
       12     1     4     0     0     0 -4.1135800630e+00  9.7198973185e+00  6.9237399598e+01  7.0037243292e+01  0.0000000000e+00 0. 9.
#pdf    2   -2  9.142338e-02  3.474280e-01  8.927113e+01  5.706211e-01  2.938078e-01
</event>
<event>
     8  9999  1.000000e+00  8.810787e+01  7.814467e-03  1.271744e-01
        1    -1     0     0   101     0  0.0000000000e+00  0.0000000000e+00  8.7522818681e+01  8.7522818681e+01  0.0000000000e+00 0. 9.
       -1    -1     0     0     0   101  0.0000000000e+00  0.0000000000e+00 -1.0897307573e+02  1.0897307573e+02  0.0000000000e+00 0. 9.
      -24     2     1     2     0     0  3.1353024723e+01 -9.9980933568e+00  3.1403531150e+01  9.5420744179e+01  8.3880645092e+01 0. 9.
       24     2     1     2     0     0 -3.1353024723e+01  9.9980933568e+00 -5.2853788200e+01  1.0107515023e+02  7.9622164234e+01 0. 9.
        3     1     3     0   102     0 -2.1879509419e+00  6.3274250701e+00 -2.6050995872e+01  2.6902189934e+01  5.0000000000e-01 0. 9.
       -4     1     3     0     0   102  3.3540975665e+01 -1.6325518427e+01  5.7454527022e+01  6.8518554245e+01  1.5000000000e+00 0. 9.
      -11     1     4     0     0     0  2.5471232922e+01 -3.1154010460e+00 -2.7107341913e+01  3.7326899364e+01  5.1100000000e-04 0. 9.
       12     1     4     0     0     0 -5.6824257645e+01  1.3113494403e+01 -2.5746446287e+01  6.3748250869e+01  0.0000000000e+00 0. 9.
#pdf    1   -1  8.930900e-02  1.111970e-01  8.615488e+01  3.572387e-01  3.301229e-01
</event>
<event>
     8  9999  1.000000e+00  9.411553e+01  7.820312e-03  1.258859e-01
        2    -1     0     0   101     0  0.0000000000e+00  0.0000000000e+00  3.6287458811e+02  3.6287458811e+02  0.0000000000e+00 0. 9.
       -2    -1     0     0     0   101  0.0000000000e+00  0.0000000000e+00 -3.3895691864e+01  3.3895691864e+01  0.0000000000e+00 0. 9.
      -24     2     1     2     0     0 -2.0980265287e+01  3.6536351210e+01  6.7099273345e+01  1.2025908368e+02  9.0470206334e+01 0. 9.
       24     2     1     2     0     0  2.0980265287e+01 -3.6536351210e+01  2.6187962291e+02  2.7651119629e+02  7.8118040758e+01 0. 9.
       15     1     3     0     0     0 -4.6244077605e+01  2.2247470652e+00  6.1921752705e+01  7.7336442669e+01  1.7769900000e+00  2.085251e-02 9.
      -16     1     3     0     0     0  2.5263812318e+01  3.4311604144e+01  5.1775206391e+00  4.2922641016e+01  0.0000000000e+00 0. 9.
       -1     1     4     0     0   102 -1.0042031245e+01  2.0814196352e+01  8.1237972098e+01  8.4461767516e+01  3.3000000000e-01 0. 9.
        2     1     4     0   102     0  3.1022296532e+01 -5.7350547561e+01  1.8064165081e+02  1.9204942878e+02  3.3000000000e-01 0. 9.
#pdf    2   -2  3.702802e-01  3.458744e-02  8.875531e+01  2.639774e-01  5.954690e-01
</event>
<event>
     8  9999  1.000000e+00  1.018722e+02  7.827341e-03  1.243729e-01
        1    -1     0     0   101     0  0.0000000000e+00  0.0000000000e+00  1.3381348834e+02  1.3381348834e+02  0.0000000000e+00 0. 9.
       -2    -1     0     0     0   101  0.0000000000e+00  0.0000000000e+00 -1.1860902345e+02  1.1860902345e+02  0.0000000000e+00 0. 9.
       23     2     1     2     0     0  8.2285024598e+00  5.5175130743e+01  8.1900156837e+01  1.3407880580e+02  9.0318808498e+01 0. 9.
      -24     2     1     2     0     0 -8.2285024598e+00 -5.5175130743e+01 -6.6695691943e+01  1.1834370600e+02  8.0280222471e+01 0. 9.
       11     1     3     0     0     0 -3.7984587137e+01  7.8170729072e+00  2.0763684179e+01  4.3989385876e+01  5.1100000000e-04 0. 9.
      -11     1     3     0     0     0  4.6213089597e+01  4.7358057836e+01  6.1136472658e+01  9.0089419919e+01  5.1100000000e-04 0. 9.
        1     1     4     0   102     0  1.6397538668e+01  1.0312073212e+01  2.9814984305e+00  1.9601437733e+01  3.3000000000e-01 0. 9.
       -2     1     4     0     0   102 -2.4626041128e+01 -6.5487203955e+01 -6.9677190373e+01  9.8742268264e+01  3.3000000000e-01 0. 9.
#pdf    1   -2  1.365444e-01  1.210296e-01  9.775949e+01  2.984048e-01  5.574187e-01
</event>
<event>
     8  9999  1.000000e+00  8.133578e+01  7.807392e-03  1.287725e-01
        2    -1     0     0   101     0  0.0000000000e+00  0.0000000000e+00  4.8223497873e+01  4.8223497873e+01  0.0000000000e+00 0. 9.
       -2    -1     0     0     0   101  0.0000000000e+00  0.0000000000e+00 -1.6488630401e+02  1.6488630401e+02  0.0000000000e+00 0. 9.
      -24     2     1     2     0     0  4.4860753022e+00  3.0970672886e+00 -1.0224505124e+02  1.3090343856e+02  8.1559444744e+01 0. 9.
       24     2     1     2     0     0 -4.4860753022e+00 -3.0970672886e+00 -1.4417754901e+01  8.2206363324e+01  8.0748361081e+01 0. 9.
       11     1     3     0     0     0 -4.0979420672e+00 -2.1401072666e+01 -1.0265457195e+02  1.0494169897e+02  5.1100000000e-04 0. 9.
      -12     1     3     0     0     0  8.5840173695e+00  2.4498139955e+01  4.0952070868e-01  2.5961739592e+01  0.0000000000e+00 0. 9.
       -3     1     4     0     0   102  3.9444457550e+00  2.6352151597e+01 -3.5937316590e+01  4.4740756249e+01  5.0000000000e-01 0. 9.
        4     1     4     0   102     0 -8.4305210572e+00 -2.9449218885e+01  2.1519561689e+01  3.7465607075e+01  1.5000000000e+00 0. 9.
#pdf    2   -2  4.920765e-02  1.682513e-01  8.093216e+01  5.822875e-01  5.276463e-01
</event>
<event>
     8  9999  1.000000e+00  1.078323e+02  7.832395e-03  1.233089e-01
        2    -1     0     0   101     0  0.0000000000e+00  0.0000000000e+00  2.1711023231e+02  2.1711023231e+02  0.0000000000e+00 0. 9.
       -1    -1     0     0     0   101  0.0000000000e+00  0.0000000000e+00 -1.4840131377e+02  1.4840131377e+02  0.0000000000e+00 0. 9.
       23     2     1     2     0     0  4.0271465184e+01 -5.1716977855e+01 -1.1129244639e+02  1.5737356531e+02  8.9911032299e+01 0. 9.
       24     2     1     2     0     0 -4.0271465184e+01  5.1716977855e+01  1.8000136492e+02  2.0813798077e+02  8.1390975912e+01 0. 9.
       16     1     3     0     0     0  2.3495262116e+01 -6.0779579778e+01 -2.6302469734e+01  7.0270936909e+01  0.0000000000e+00 0. 9.
      -16     1     3     0     0     0  1.6776203068e+01  9.0626019230e+00 -8.4989976653e+01  8.7102628402e+01  0.0000000000e+00 0. 9.
       -3     1     4     0     0   102  1.9707785246e+01 -5.4618380146e+00  2.4406757326e+01  3.1846008808e+01  5.0000000000e-01 0. 9.
        4     1     4     0   102     0 -5.9979250430e+01  5.7178815870e+01  1.5559460759e+02  1.7629197196e+02  1.5000000000e+00 0. 9.
#pdf    2   -1  2.215411e-01  1.514299e-01  1.045032e+02  4.606102e-01  2.802890e-01
</event>
<event>
     8  9999  1.000000e+00  1.706084e+02  7.873420e-03  1.153465e-01
        2    -1     0     0   101     0  0.0000000000e+00  0.0000000000e+00  2.2281288449e+02  2.2281288449e+02  0.0000000000e+00 0. 9.
       -2    -1     0     0     0   101  0.0000000000e+00  0.0000000000e+00 -1.3159000553e+02  1.3159000553e+02  0.0000000000e+00 0. 9.
      -24     2     1     2     0     0 -1.3662383569e+02 -5.2227964131e+01  3.0035567951e+01  1.6997292897e+02  8.1208549583e+01 0. 9.
       24     2     1     2     0     0  1.3662383569e+02  5.2227964131e+01  6.1187311012e+01  1.8442996105e+02  9.4216191756e+01 0. 9.
       13     1     3     0     0     0 -2.1659539787e+01  2.1491512158e+01  2.1757439374e+00  3.0590289053e+01  1.0566000000e-01  3.261228e+05 9.
      -14     1     3     0     0     0 -1.1496429590e+02 -7.3719476290e+01  2.7859824013e+01  1.3938263992e+02  0.0000000000e+00 0. 9.
       -3     1     4     0     0   102 -8.7579535385e+00  1.8860119522e+01 -4.7521193349e+00  2.1336318725e+01  5.0000000000e-01 0. 9.
        4     1     4     0   102     0  1.4538178923e+02  3.3367844610e+01  6.5939430347e+01  1.6309364233e+02  1.5000000000e+00 0. 9.
#pdf    2   -2  2.273601e-01  1.342755e-01  1.672981e+02  4.380947e-01  5.381012e-01
</event>
<event>
     8  9999  1.000000e+00  8.275310e+01  7.808919e-03  1.284239e-01
        2    -1     0     0   101     0  0.0000000000e+00  0.0000000000e+00  2.9284441279e+01  2.9284441279e+01  0.0000000000e+00 0. 9.
       -2    -1     0     0     0   101  0.0000000000e+00  0.0000000000e+00 -2.9958881176e+02  2.9958881176e+02  0.0000000000e+00 0. 9.
      -24     2     1     2     0     0  1.5821939682e+01  9.2583052990e+00 -2.1437675895e+02  2.3044927968e+02  8.2543477838e+01 0. 9.
       24     2     1     2     0     0 -1.5821939682e+01 -9.2583052990e+00 -5.5927611530e+01  9.8423973360e+01  7.8888090408e+01 0. 9.
        1     1     3     0   102     0  2.1305414933e+01  4.4253981100e+01 -1.2249496601e+02  1.3197522929e+02  3.3000000000e-01 0. 9.
       -2     1     3     0     0   102 -5.4834752516e+00 -3.4995675801e+01 -9.1881792942e+01  9.8474050388e+01  3.3000000000e-01 0. 9.
       -1     1     4     0     0   103  9.2675436399e+00 -3.8098640703e+01 -4.2700258875e+01  5.7972534847e+01  3.3000000000e-01 0. 9.
        2     1     4     0   103     0 -2.5089483322e+01  2.8840335404e+01 -1.3227352655e+01  4.0451438513e+01  3.3000000000e-01 0. 9.
#pdf    2   -2  2.988208e-02  3.057029e-01  8.099000e+01  6.018907e-01  3.546641e-01
</event>
<event>
     8  9999  1.000000e+00  9.075255e+01  7.817086e-03  1.265934e-01
        2    -1     0     0   101     0  0.0000000000e+00  0.0000000000e+00  9.5238079293e+01  9.5238079293e+01  0.0000000000e+00 0. 9.
       -1    -1     0     0     0   101  0.0000000000e+00  0.0000000000e+00 -9.1625516185e+01  9.1625516185e+01  0.0000000000e+00 0. 9.
       23     2     1     2     0     0  3.0556714382e+01  2.0503239700e+00 -1.9643868889e+01  9.7872402218e+01  9.0858180198e+01 0. 9.
       24     2     1     2     0     0 -3.0556714382e+01 -2.0503239700e+00  2.3256431997e+01  8.8991193260e+01  8.0253686684e+01 0. 9.
       11     1     3     0     0     0 -1.2949123284e+01  3.7514024972e+01 -6.3496887554e+00  4.0190800079e+01  5.1100000000e-04 0. 9.
      -11     1     3     0     0     0  4.3505837665e+01 -3.5463701002e+01 -1.3294180133e+01  5.7681602140e+01  5.1100000000e-04 0. 9.
      -11     1     4     0     0     0 -1.1461125117e+01 -1.5947057503e+01 -2.7044094283e+01  3.3422284000e+01  5.1100000000e-04 0. 9.
       12     1     4     0     0     0 -1.9095589264e+01  1.3896733533e+01  5.0300526280e+01  5.5568909259e+01  0.0000000000e+00 0. 9.
#pdf    2   -1  9.718171e-02  9.349542e-02  8.589861e+01  5.694272e-01  3.519174e-01
</event>
<event>
     8  9999  1.000000e+00  1.036719e+02  7.828897e-03  1.240433e-01
        2    -1     0     0   101     0  0.0000000000e+00  0.0000000000e+00  3.3404279500e+01  3.3404279500e+01  0.0000000000e+00 0. 9.
       -2    -1     0     0     0   101  0.0000000000e+00  0.0000000000e+00 -4.1566556287e+02  4.1566556287e+02  0.0000000000e+00 0. 9.
      -24     2     1     2     0     0  6.6106039302e+01  2.5303715551e+01 -7.7109576968e+01  1.2490888107e+02  6.8161978084e+01 0. 9.
       24     2     1     2     0     0 -6.6106039302e+01 -2.5303715551e+01 -3.0515170640e+02  3.2416096130e+02  8.3381523488e+01 0. 9.
       11     1     3     0     0     0 -4.7192296215e+00  1.7776498179e+01  1.9530335099e+00  1.8495657758e+01  5.1100000000e-04 0. 9.
      -12     1     3     0     0     0  7.0825268924e+01  7.5272173721e+00 -7.9062610478e+01  1.0641322331e+02  0.0000000000e+00 0. 9.
      -15     1     4     0     0     0 -4.1221397208e+00 -4.0464930658e+01 -1.6843709013e+02  1.7328766163e+02  1.7769900000e+00  1.213062e-01 9.
       16     1     4     0     0     0 -6.1983899581e+01  1.5161215107e+01 -1.3671461627e+02  1.5087329967e+02  0.0000000000e+00 0. 9.
#pdf    2   -2  3.408600e-02  4.241485e-01  9.826669e+01  5.974317e-01  1.961959e-01
</event>
<event>
     8  9999  1.000000e+00  8.491288e+01  7.811197e-03  1.279075e-01
        1    -1     0     0   101     0  0.0000000000e+00  0.0000000000e+00  3.4832394397e+01  3.4832394397e+01  0.0000000000e+00 0. 9.
       -1    -1     0     0     0   101  0.0000000000e+00  0.0000000000e+00 -2.1311304288e+02  2.1311304288e+02  0.0000000000e+00 0. 9.
      -24     2     1     2     0     0  3.6002258000e+00  3.1755392871e+01 -1.1167816029e+02  1.4130169466e+02  8.0453656389e+01 0. 9.
       24     2     1     2     0     0 -3.6002258000e+00 -3.1755392871e+01 -6.6602488191e+01  1.0664374261e+02  7.6913131538e+01 0. 9.
       11     1     3     0     0     0  1.9172653053e+01  9.0370674964e+00  4.6983695624e+00  2.1710225490e+01  5.1100000000e-04 0. 9.
      -12     1     3     0     0     0 -1.5572427253e+01  2.2718325374e+01 -1.1637652985e+02  1.1959146917e+02  0.0000000000e+00 0. 9.
      -11     1     4     0     0     0 -1.9484908770e+01  2.0726352367e+01 -2.3472513065e+01  3.6880919485e+01  5.1100000000e-04 0. 9.
       12     1     4     0     0     0  1.5884682970e+01 -5.2481745238e+01 -4.3129975126e+01  6.9762823127e+01  0.0000000000e+00 0. 9.
#pdf    1   -1  3.554326e-02  2.174623e-01  8.328863e+01  4.529023e-01  2.137632e-01
</event>
<event>
     8  9999  1.000000e+00  8.777297e+01  7.814129e-03  1.272496e-01
        1    -1     0     0   101     0  0.0000000000e+00  0.0000000000e+00  1.2215369025e+02  1.2215369025e+02  0.0000000000e+00 0. 9.
       -1    -1     0     0     0   101  0.0000000000e+00  0.0000000000e+00 -2.6494088850e+02  2.6494088850e+02  0.0000000000e+00 0. 9.
      -24     2     1     2     0     0 -1.6094130172e+01  3.9438381892e+00  9.8506967349e+01  1.2812532278e+02  8.0236530553e+01 0. 9.
       24     2     1     2     0     0  1.6094130172e+01 -3.9438381892e+00 -2.4129416560e+02  2.5896925597e+02  9.2561473066e+01 0. 9.
        1     1     3     0   102     0 -2.3425530217e+01  3.6099851342e+01  7.8572766705e+01  8.9586512939e+01  3.3000000000e-01 0. 9.
       -2     1     3     0     0   102  7.3314000452e+00 -3.2156013153e+01  1.9934200644e+01  3.8538809839e+01  3.3000000000e-01 0. 9.
       -3     1     4     0     0   103  2.4303704050e+00 -9.4131906357e-01 -2.4451987496e+02  2.4453427578e+02  5.0000000000e-01 0. 9.
        4     1     4     0   103     0  1.3663759767e+01 -3.0025191257e+00  3.2257093568e+00  1.4434980185e+01  1.5000000000e+00 0. 9.
#pdf    1   -1  1.246466e-01  2.703478e-01  8.192970e+01  3.150334e-01  1.642131e-01
</event>
<event>
     8  9999  1.000000e+00  1.063437e+02  7.831159e-03  1.235674e-01
        2    -1     0     0   101     0  0.0000000000e+00  0.0000000000e+00  1.5385376550e+02  1.5385376550e+02  0.0000000000e+00 0. 9.
       -1    -1     0     0     0   101  0.0000000000e+00  0.0000000000e+00 -1.4060608449e+02  1.4060608449e+02  0.0000000000e+00 0. 9.
       23     2     1     2     0     0 -5.7008524021e+01  2.3261876514e+01 -9.4722760502e+01  1.4640457967e+02  9.3117199702e+01 0. 9.
       24     2     1     2     0     0  5.7008524021e+01 -2.3261876514e+01  1.0797044151e+02  1.4805527033e+02  8.0446629030e+01 0. 9.
       14     1     3     0     0     0 -8.1594594691e+00 -3.2795070726e+01 -4.7594300181e+01  5.8372175328e+01  0.0000000000e+00 0. 9.
      -14     1     3     0     0     0 -4.8849064552e+01  5.6056947240e+01 -4.7128460321e+01  8.8032404339e+01  0.0000000000e+00 0. 9.
       -3     1     4     0     0   102 -1.5759698078e+01 -1.6563937537e+01  8.0267067604e+00  2.4236545373e+01  5.0000000000e-01 0. 9.
        4     1     4     0   102     0  7.2768222098e+01 -6.6979389776e+00  9.9943734748e+01  1.2381872495e+02  1.5000000000e+00 0. 9.
#pdf    2   -1  1.569936e-01  1.434756e-01  1.013052e+02  5.315810e-01  2.898571e-01
</event>
<event>
     8  9999  1.000000e+00  1.196897e+02  7.841686e-03  1.214033e-01
        2    -1     0     0   101     0  0.0000000000e+00  0.0000000000e+00  7.4291492424e+01  7.4291492424e+01  0.0000000000e+00 0. 9.
       -2    -1     0     0     0   101  0.0000000000e+00  0.0000000000e+00 -2.0027659050e+02  2.0027659050e+02  0.0000000000e+00 0. 9.
      -24     2     1     2     0     0  2.0472769254e+01  8.4999863792e+01 -8.8667627738e+01  1.4778589298e+02  7.9590268445e+01 0. 9.
       24     2     1     2     0     0 -2.0472769254e+01 -8.4999863792e+01 -3.7317470335e+01  1.2678218994e+02  8.3886941578e+01 0. 9.
        1     1     3     0   102     0 -2.5154645780e+01  6.8701939697e+00 -1.0131006426e+01  2.7976811124e+01  3.3000000000e-01 0. 9.
       -2     1     3     0     0   102  4.5627415034e+01  7.8129669822e+01 -7.8536621312e+01  1.1980908186e+02  3.3000000000e-01 0. 9.
       -1     1     4     0     0   103  3.0516801591e+01 -4.2968892408e+01 -2.9068309366e+01  6.0188673382e+01  3.3000000000e-01 0. 9.
        2     1     4     0   103     0 -5.0989570845e+01 -4.2030971384e+01 -8.2491609696e+00  6.6593516554e+01  3.3000000000e-01 0. 9.
#pdf    2   -2  7.580765e-02  2.043639e-01  1.182316e+02  5.724141e-01  4.778787e-01
</event>
<event>
     8  9999  1.000000e+00  1.225723e+02  7.843809e-03  1.209768e-01
        2    -1     0     0   101     0  0.0000000000e+00  0.0000000000e+00  5.0638425269e+01  5.0638425269e+01  0.0000000000e+00 0. 9.
       -2    -1     0     0     0   101  0.0000000000e+00  0.0000000000e+00 -2.9980491464e+02  2.9980491464e+02  0.0000000000e+00 0. 9.
      -24     2     1     2     0     0  4.8777419209e+01 -7.9052748525e+01 -1.4251395557e+02  1.8802218061e+02  8.0084575250e+01 0. 9.
       24     2     1     2     0     0 -4.8777419209e+01  7.9052748525e+01 -1.0665253380e+02  1.6242115930e+02  7.9857976118e+01 0. 9.
       11     1     3     0     0     0 -1.1382413827e+01 -5.3279870921e+01 -4.5430401180e+01  7.0938179717e+01  5.1100000000e-04 0. 9.
      -12     1     3     0     0     0  6.0159833036e+01 -2.5772877604e+01 -9.7083554391e+01  1.1708400089e+02  0.0000000000e+00 0. 9.
       -1     1     4     0     0   102 -1.0670219119e-01  7.3050423899e+01 -7.0043921258e+01  1.0120590705e+02  3.3000000000e-01 0. 9.
        4     1     4     0   102     0 -4.8670717017e+01  6.0023246261e+00 -3.6608612541e+01  6.1215252251e+01  1.5000000000e+00 0. 9.
#pdf    2   -2  5.167186e-02  3.059234e-01  1.224984e+02  5.820259e-01  3.399385e-01
</event>
<event>
     8  9999  1.000000e+00  1.358791e+02  7.853014e-03  1.191639e-01
        2    -1     0     0   101     0  0.0000000000e+00  0.0000000000e+00  3.7788289098e+02  3.7788289098e+02  0.0000000000e+00 0. 9.
       -1    -1     0     0     0   101  0.0000000000e+00  0.0000000000e+00 -3.1561047721e+02  3.1561047721e+02  0.0000000000e+00 0. 9.
       23     2     1     2     0     0  8.6579218068e+01  4.9370782895e+01 -2.8763882979e+02  3.1816570154e+02  9.2519630525e+01 0. 9.
       24     2     1     2     0     0 -8.6579218068e+01 -4.9370782895e+01  3.4991124356e+02  3.7532766665e+02  9.2192970325e+01 0. 9.
        3     1     3     0   102     0  1.5345707627e+00 -1.9017954704e+01 -1.4308726509e+01  2.3854290240e+01  5.0000000000e-01 0. 9.
       -3     1     3     0     0   102  8.5044647305e+01  6.8388737599e+01 -2.7333010328e+02  2.9431141131e+02  5.0000000000e-01 0. 9.
       -1     1     4     0     0   103 -4.0020046757e+01 -5.5450190578e+01  1.0065757212e+02  1.2168970171e+02  3.3000000000e-01 0. 9.
        2     1     4     0   103     0 -4.6559171311e+01  6.0794076829e+00  2.4925367144e+02  2.5363796494e+02  3.3000000000e-01 0. 9.
#pdf    2   -1  3.855948e-01  3.220515e-01  1.357681e+02  2.318577e-01  1.153173e-01
</event>
<event>
     8  9999  1.000000e+00  1.230737e+02  7.844173e-03  1.209039e-01
        2    -1     0     0   101     0  0.0000000000e+00  0.0000000000e+00  6.5893589162e+01  6.5893589162e+01  0.0000000000e+00 0. 9.
       -2    -1     0     0     0   101  0.0000000000e+00  0.0000000000e+00 -2.5591698436e+02  2.5591698436e+02  0.0000000000e+00 0. 9.
       23     2     1     2     0     0 -2.9932574598e+01  7.6396514059e+01 -4.4906382633e+01  1.3261806824e+02  9.4013735386e+01 0. 9.
       23     2     1     2     0     0  2.9932574598e+01 -7.6396514059e+01 -1.4511701257e+02  1.8919250528e+02  8.9456527628e+01 0. 9.
        3     1     3     0   102     0 -3.7896795509e+01  6.1257915229e+01 -7.1175491959e+01  1.0126647986e+02  5.0000000000e-01 0. 9.
       -3     1     3     0     0   102  7.9642209112e+00  1.5138598830e+01  2.6269109326e+01  3.1351588382e+01  5.0000000000e-01 0. 9.
       16     1     4     0     0     0  4.1613816002e+01 -3.9139718504e+01 -2.4048365816e+01  6.1983474775e+01  0.0000000000e+00 0. 9.
      -16     1     4     0     0     0 -1.1681241404e+01 -3.7256795555e+01 -1.2106864675e+02  1.2720903051e+02  0.0000000000e+00 0. 9.
#pdf    2   -2  6.723836e-02  2.611398e-01  1.213872e+02  5.750692e-01  4.027365e-01
</event>
<event>
     8  9999  1.000000e+00  9.865457e+01  7.824491e-03  1.249817e-01
        2    -1     0     0   101     0  0.0000000000e+00  0.0000000000e+00  1.9943956991e+02  1.9943956991e+02  0.0000000000e+00 0. 9.
       -1    -1     0     0     0   101  0.0000000000e+00  0.0000000000e+00 -1.6374566556e+02  1.6374566556e+02  0.0000000000e+00 0. 9.
       23     2     1     2     0     0 -2.3552267428e+01  1.6649848642e+01  1.6953310413e+02  2.0477445091e+02  1.1117182911e+02 0. 9.
       24     2     1     2     0     0  2.3552267428e+01 -1.6649848642e+01 -1.3383919978e+02  1.5841078457e+02  7.9681356086e+01 0. 9.
        5     1     3     0   102     0 -2.0703385903e+01 -4.6577953087e+01  7.0001095920e+01  8.6725597903e+01  4.8000000000e+00 0. 9.
       -5     1     3     0     0   102 -2.8488815247e+00  6.3227801730e+01  9.9532008212e+01  1.1804885301e+02  4.8000000000e+00 0. 9.
       -3     1     4     0     0   103  1.8939623656e+01 -1.4767740562e+01 -1.4453452088e+02  1.4651714313e+02  5.0000000000e-01 0. 9.
        4     1     4     0   103     0  4.6126437721e+00 -1.8821080802e+00  1.0695321093e+01  1.1893641439e+01  1.5000000000e+00 0. 9.
#pdf    2   -1  2.035098e-01  1.670874e-01  8.474105e+01  4.894081e-01  2.665423e-01
</event>
<event>
     8  9999  1.000000e+00  8.610533e+01  7.812431e-03  1.276298e-01
        1    -1     0     0   101     0  0.0000000000e+00  0.0000000000e+00  6.1462372369e+01  6.1462372369e+01  0.0000000000e+00 0. 9.
       -1    -1     0     0     0   101  0.0000000000e+00  0.0000000000e+00 -1.5146271289e+02  1.5146271289e+02  0.0000000000e+00 0. 9.
      -24     2     1     2     0     0 -2.8242347557e+01 -5.5350978851e+00  2.9041733116e+00  8.6465303236e+01  8.1483415104e+01 0. 9.
       24     2     1     2     0     0  2.8242347557e+01  5.5350978851e+00 -9.2904513836e+01  1.2645978203e+02  8.0824255485e+01 0. 9.
        1     1     3     0   102     0 -3.7756771263e+01 -3.7197791003e+01  5.5689219984e+00  5.3295133211e+01  3.3000000000e-01 0. 9.
       -2     1     3     0     0   102  9.5144237066e+00  3.1662693118e+01 -2.6647486868e+00  3.3170170025e+01  3.3000000000e-01 0. 9.
       -3     1     4     0     0   103  2.3373993580e+01 -1.4382456620e+00 -1.0721586655e+02  1.0974472273e+02  5.0000000000e-01 0. 9.
        4     1     4     0   103     0  4.8683539768e+00  6.9733435472e+00  1.4311352717e+01  1.6715059295e+01  1.5000000000e+00 0. 9.
#pdf    1   -1  6.271671e-02  1.545538e-01  8.579527e+01  3.950967e-01  2.802013e-01
</event>
<event>
     8  9999  1.000000e+00  8.170816e+01  7.807795e-03  1.286802e-01
        2    -1     0     0   101     0  0.0000000000e+00  0.0000000000e+00  1.2120726411e+02  1.2120726411e+02  0.0000000000e+00 0. 9.
       -2    -1     0     0     0   101  0.0000000000e+00  0.0000000000e+00 -6.7013974876e+01  6.7013974876e+01  0.0000000000e+00 0. 9.
      -24     2     1     2     0     0 -4.2400212960e+00  4.4978327125e+00 -1.3076495396e+01  8.0890402724e+01  7.9586771774e+01 0. 9.
       24     2     1     2     0     0  4.2400212960e+00 -4.4978327125e+00  6.7269784630e+01  1.0733083626e+02  8.3405492678e+01 0. 9.
       11     1     3     0     0     0 -1.7041349827e+01 -2.6553822188e+01  1.6969412967e+01  3.5825606114e+01  5.1100000000e-04 0. 9.
      -12     1     3     0     0     0  1.2801328531e+01  3.1051654900e+01 -3.0045908363e+01  4.5064796611e+01  0.0000000000e+00 0. 9.
       -3     1     4     0     0   102 -8.0430407282e+00 -1.9596097979e+01 -1.2908150942e+01  2.4810641284e+01  5.0000000000e-01 0. 9.
        4     1     4     0   102     0  1.2283062024e+01  1.5098265267e+01  8.0177935572e+01  8.2520194979e+01  1.5000000000e+00 0. 9.
#pdf    2   -2  1.236809e-01  6.838161e-02  7.982645e+01  5.599617e-01  5.766062e-01
</event>
<event>
     8  9999  1.000000e+00  8.682053e+01  7.813164e-03  1.274656e-01
        2    -1     0     0   101     0  0.0000000000e+00  0.0000000000e+00  2.7609547740e+01  2.7609547740e+01  0.0000000000e+00 0. 9.
       -2    -1     0     0     0   101  0.0000000000e+00  0.0000000000e+00 -4.5592825157e+02  4.5592825157e+02  0.0000000000e+00 0. 9.
      -24     2     1     2     0     0  4.8546293671e+00  2.1909168450e+01 -3.6559417439e+02  3.7550334929e+02  8.2704811782e+01 0. 9.
       24     2     1     2     0     0 -4.8546293671e+00 -2.1909168450e+01 -6.2724529440e+01  1.0803445002e+02  8.5049965955e+01 0. 9.
        1     1     3     0   102     0 -2.1728659259e+01 -7.6857383877e+00 -3.1413604477e+01  3.8963170482e+01  3.3000000000e-01 0. 9.
       -2     1     3     0     0   102  2.6583288626e+01  2.9594906838e+01 -3.3418056992e+02  3.3654017881e+02  3.3000000000e-01 0. 9.
      -11     1     4     0     0     0 -1.5277583910e+01  3.0476855591e+01 -2.9868632908e+01  4.5325252662e+01  5.1100000000e-04 0. 9.
       12     1     4     0     0     0  1.0422954543e+01 -5.2386024041e+01 -3.2855896532e+01  6.2709197357e+01  0.0000000000e+00 0. 9.
#pdf    2   -2  2.817301e-02  4.652329e-01  8.569519e+01  6.064116e-01  1.569277e-01
</event>
<event>
     8  9999  1.000000e+00  1.247238e+02  7.845361e-03  1.206669e-01
        1    -1     0     0   101     0  0.0000000000e+00  0.0000000000e+00  3.2805615024e+02  3.2805615024e+02  0.0000000000e+00 0. 9.
       -1    -1     0     0     0   101  0.0000000000e+00  0.0000000000e+00 -4.7828568727e+01  4.7828568727e+01  0.0000000000e+00 0. 9.
      -24     2     1     2     0     0  9.4474432049e+01  4.4290754276e-01  1.5835170928e+02  2.0206489729e+02  8.2639847577e+01 0. 9.
       24     2     1     2     0     0 -9.4474432049e+01 -4.4290754276e-01  1.2187587223e+02  1.7381982167e+02  8.0212141826e+01 0. 9.
        3     1     3     0   102     0  9.2366295463e+01  2.8994067110e+01  1.2426814811e+02  1.5752781056e+02  5.0000000000e-01 0. 9.
       -4     1     3     0     0   102  2.1081365861e+00 -2.8551159568e+01  3.4083561174e+01  4.4537086735e+01  1.5000000000e+00 0. 9.
       -3     1     4     0     0   103 -1.2589883766e+01 -1.5483884462e+01 -6.3336362278e+00  2.0943275750e+01  5.0000000000e-01 0. 9.
        4     1     4     0   103     0 -8.1884548283e+01  1.5040976919e+01  1.2820950845e+02  1.5287654592e+02  1.5000000000e+00 0. 9.
#pdf    1   -1  3.347512e-01  4.880466e-02  1.239339e+02  1.077591e-01  4.196384e-01
</event>
<event>
     8  9999  1.000000e+00  7.880600e+01  7.804600e-03  1.294150e-01
        2    -1     0     0   101     0  0.0000000000e+00  0.0000000000e+00  1.0245847370e+02  1.0245847370e+02  0.0000000000e+00 0. 9.
       -2    -1     0     0     0   101  0.0000000000e+00  0.0000000000e+00 -8.5346098126e+01  8.5346098126e+01  0.0000000000e+00 0. 9.
      -24     2     1     2     0     0  2.7494980578e+00  4.7149063129e+00 -4.2010659245e+01  8.9099203631e+01  7.8383560243e+01 0. 9.
       24     2     1     2     0     0 -2.7494980578e+00 -4.7149063129e+00  5.9123034817e+01  9.8705368194e+01  7.8850658736e+01 0. 9.
       15     1     3     0     0     0  1.2826849264e+01 -3.1299006814e+01 -1.4121627802e+00  3.3901442252e+01  1.7769900000e+00  1.243834e-02 9.
      -16     1     3     0     0     0 -1.0077351206e+01  3.6013913127e+01 -4.0598496464e+01  5.5197761379e+01  0.0000000000e+00 0. 9.
       -1     1     4     0     0   102 -2.8716479977e+01  1.2780745854e+01 -4.1341127333e-01  3.1436658470e+01  3.3000000000e-01 0. 9.
        2     1     4     0   102     0  2.5966981919e+01 -1.7495652167e+01  5.9536446091e+01  6.7268709724e+01  3.3000000000e-01 0. 9.
#pdf    2   -2  1.045495e-01  8.708786e-02  7.857336e+01  5.683339e-01  5.731016e-01
</event>
<event>
     8  9999  1.000000e+00  9.725906e+01  7.823226e-03  1.252538e-01
        1    -1     0     0   101     0  0.0000000000e+00  0.0000000000e+00  1.2676480552e+02  1.2676480552e+02  0.0000000000e+00 0. 9.
       -1    -1     0     0     0   101  0.0000000000e+00  0.0000000000e+00 -8.4792112808e+01  8.4792112808e+01  0.0000000000e+00 0. 9.
      -24     2     1     2     0     0  4.8763569587e+01  5.9791846119e+00 -1.6085469387e+01  9.5567350224e+01  8.0378726886e+01 0. 9.
       24     2     1     2     0     0 -4.8763569587e+01 -5.9791846119e+00  5.8058162104e+01  1.1598956811e+02  8.7573930799e+01 0. 9.
       11     1     3     0     0     0  6.1917952243e+01  8.2653245838e+00  1.2782249382e+01  6.3761542484e+01  5.1100000000e-04 0. 9.
      -12     1     3     0     0     0 -1.3154382656e+01 -2.2861399720e+00 -2.8867718769e+01  3.1805807739e+01  0.0000000000e+00 0. 9.
       -3     1     4     0     0   102 -5.0108776186e+01 -1.8264400438e+01 -3.2618902404e+00  5.3435640748e+01  5.0000000000e-01 0. 9.
        2     1     4     0   102     0  1.3452065989e+00  1.2285215826e+01  6.1320052344e+01  6.2553927360e+01  3.3000000000e-01 0. 9.
#pdf    1   -1  1.293518e-01  8.652256e-02  9.420391e+01  3.073375e-01  3.598762e-01
</event>
<event>
     8  9999  1.000000e+00  9.261916e+01  7.818891e-03  1.261966e-01
        2    -1     0     0   101     0  0.0000000000e+00  0.0000000000e+00  1.3634759282e+02  1.3634759282e+02  0.0000000000e+00 0. 9.
       -1    -1     0     0     0   101  0.0000000000e+00  0.0000000000e+00 -9.8151493839e+01  9.8151493839e+01  0.0000000000e+00 0. 9.
       23     2     1     2     0     0  3.1767249477e+00  3.6183201283e+01 -5.0220218039e+01  1.0999397428e+02  9.0869623313e+01 0. 9.
       24     2     1     2     0     0 -3.1767249477e+00 -3.6183201283e+01  8.8416317024e+01  1.2450511239e+02  7.9779460124e+01 0. 9.
       11     1     3     0     0     0 -2.8032950966e+01 -1.6768928064e+01 -3.2373907864e+01  4.5990359847e+01  5.1100000000e-04 0. 9.
      -11     1     3     0     0     0  3.1209675913e+01  5.2952129347e+01 -1.7846310175e+01  6.4003614430e+01  5.1100000000e-04 0. 9.
       -3     1     4     0     0   102 -4.1252870800e+00 -3.8220808822e+01  2.4795981508e+00  3.8525921501e+01  5.0000000000e-01 0. 9.
        4     1     4     0   102     0  9.4856213236e-01  2.0376075389e+00  8.5936718873e+01  8.5979190885e+01  1.5000000000e+00 0. 9.
#pdf    2   -1  1.391302e-01  1.001546e-01  8.765887e+01  5.487954e-01  3.433212e-01
</event>
<event>
     8  9999  1.000000e+00  8.209329e+01  7.808211e-03  1.285852e-01
        2    -1     0     0   101     0  0.0000000000e+00  0.0000000000e+00  4.4901168033e+01  4.4901168033e+01  0.0000000000e+00 0. 9.
       -2    -1     0     0     0   101  0.0000000000e+00  0.0000000000e+00 -1.6668337673e+02  1.6668337673e+02  0.0000000000e+00 0. 9.
      -24     2     1     2     0     0  1.1040006434e+01  5.4151601000e+00 -2.7288772853e+01  8.6186660133e+01  8.0822382791e+01 0. 9.
       24     2     1     2     0     0 -1.1040006434e+01 -5.4151601000e+00 -9.4493435845e+01  1.2539788463e+02  8.1513277147e+01 0. 9.
       13     1     3     0     0     0  1.3476098504e+01  4.8063494475e+00  2.7680688676e+01  3.1159876693e+01  1.0566000000e-01  7.573481e+05 9.
      -14     1     3     0     0     0 -2.4360920697e+00  6.0881065246e-01 -5.4969461529e+01  5.5026783440e+01  0.0000000000e+00 0. 9.
       -3     1     4     0     0   102  5.8746127523e+00 -4.1724659385e+01 -4.3925912580e+01  6.0870305337e+01  5.0000000000e-01 0. 9.
        4     1     4     0   102     0 -1.6914619187e+01  3.6309499285e+01 -5.0567523264e+01  6.4527579295e+01  1.5000000000e+00 0. 9.
#pdf    2   -2  4.581752e-02  1.700851e-01  8.175245e+01  5.841635e-01  5.256730e-01
</event>
<event>
     8  9999  1.000000e+00  8.381456e+01  7.810046e-03  1.281680e-01
        1    -1     0     0   101     0  0.0000000000e+00  0.0000000000e+00  9.3281078893e+01  9.3281078893e+01  0.0000000000e+00 0. 9.
       -1    -1     0     0     0   101  0.0000000000e+00  0.0000000000e+00 -7.8694368603e+01  7.8694368603e+01  0.0000000000e+00 0. 9.
      -24     2     1     2     0     0 -1.3683128215e+00 -1.6978912492e+01 -1.0582867305e+01  8.2337587857e+01  7.9858158909e+01 0. 9.
       24     2     1     2     0     0  1.3683128215e+00  1.6978912492e+01  2.5169577595e+01  8.9637859640e+01  8.4328420447e+01 0. 9.
       13     1     3     0     0     0  3.4582099828e+01  4.1877392462e+00  9.3985741828e+00  3.6080509270e+01  1.0566000000e-01  2.761021e+05 9.
      -14     1     3     0     0     0 -3.5950412649e+01 -2.1166651738e+01 -1.9981441488e+01  4.6257078587e+01  0.0000000000e+00 0. 9.
       -3     1     4     0     0   102  5.3754803269e+00  9.3196674357e+00 -3.0984234852e+01  3.2802816941e+01  5.0000000000e-01 0. 9.
        4     1     4     0   102     0 -4.0071675054e+00  7.6592450559e+00  5.6153812447e+01  5.6835042699e+01  1.5000000000e+00 0. 9.
#pdf    1   -1  9.518477e-02  8.030038e-02  8.165465e+01  3.504162e-01  3.697129e-01
</event>
<event>
     8  9999  1.000000e+00  8.055656e+01  7.806541e-03  1.289676e-01
        1    -1     0     0   101     0  0.0000000000e+00  0.0000000000e+00  3.9437395375e+01  3.9437395375e+01  0.0000000000e+00 0. 9.
       -1    -1     0     0     0   101  0.0000000000e+00  0.0000000000e+00 -6.2818052042e+02  6.2818052042e+02  0.0000000000e+00 0. 9.
      -24     2     1     2     0     0  1.0181378286e+01 -9.5527713083e+00 -8.5993505750e+00  8.2048261202e+01  8.0393111847e+01 0. 9.
       24     2     1     2     0     0 -1.0181378286e+01  9.5527713083e+00 -5.8014377447e+02  5.8556965460e+02  7.8294989749e+01 0. 9.
        1     1     3     0   102     0 -1.0266880626e+01 -2.5415084274e+01  2.6707097387e+01  3.8271572966e+01  3.3000000000e-01 0. 9.
       -2     1     3     0     0   102  2.0448258912e+01  1.5862312966e+01 -3.5306447962e+01  4.3776688235e+01  3.3000000000e-01 0. 9.
      -11     1     4     0     0     0 -2.9874351870e-01  2.3565480562e+01 -5.5274767805e+02  5.5324986825e+02  5.1100000000e-04 0. 9.
       12     1     4     0     0     0 -9.8826347670e+00 -1.4012709254e+01 -2.7396096420e+01  3.2319786349e+01  0.0000000000e+00 0. 9.
#pdf    1   -1  4.024224e-02  6.410005e-01  7.953000e+01  4.397504e-01  7.565866e-03
</event>
<event>
     8  9999  1.000000e+00  1.076954e+02  7.832282e-03  1.233325e-01
        2    -1     0     0   101     0  0.0000000000e+00  0.0000000000e+00  2.1063670514e+02  2.1063670514e+02  0.0000000000e+00 0. 9.
       -2    -1     0     0     0   101  0.0000000000e+00  0.0000000000e+00 -1.3072751051e+02  1.3072751051e+02  0.0000000000e+00 0. 9.
      -24     2     1     2     0     0 -4.2422675032e+01  5.7827065149e+01 -8.9885282925e+01  1.4033921303e+02  8.0449225019e+01 0. 9.
       24     2     1     2     0     0  4.2422675032e+01 -5.7827065149e+01  1.6979447756e+02  2.0102500262e+02  8.0232376559e+01 0. 9.
        3     1     3     0   102     0 -4.4144847647e+01  1.5380016125e+00 -1.5046240932e+01  4.6666608929e+01  5.0000000000e-01 0. 9.
       -4     1     3     0     0   102  1.7221726152e+00  5.6289063536e+01 -7.4839041993e+01  9.3672604099e+01  1.5000000000e+00 0. 9.
       -1     1     4     0     0   103  3.3082226610e+01  1.3037083484e+01  6.6509981620e+01  7.5419399483e+01  3.3000000000e-01 0. 9.
        2     1     4     0   103     0  9.3404484219e+00 -7.0864148633e+01  1.0328449594e+02  1.2560560314e+02  3.3000000000e-01 0. 9.
#pdf    2   -2  2.149354e-01  1.333954e-01  1.076145e+02  4.679480e-01  5.480877e-01
</event>
<event>
     8  9999  1.000000e+00  8.442153e+01  7.810684e-03  1.280235e-01
        1    -1     0     0   101     0  0.0000000000e+00  0.0000000000e+00  1.4381228480e+02  1.4381228480e+02  0.0000000000e+00 0. 9.
       -1    -1     0     0     0   101  0.0000000000e+00  0.0000000000e+00 -6.9357351360e+01  6.9357351360e+01  0.0000000000e+00 0. 9.
      -24     2     1     2     0     0  2.0286331051e+01  1.4788629064e+01  9.4371104951e+01  1.2704852452e+02  8.1272279133e+01 0. 9.
       24     2     1     2     0     0 -2.0286331051e+01 -1.4788629064e+01 -1.9916171512e+01  8.6121111641e+01  7.9937182871e+01 0. 9.
        1     1     3     0   102     0  4.2650731051e+01 -1.0284514740e+01  7.8410190832e+01  8.9850559424e+01  3.3000000000e-01 0. 9.
       -2     1     3     0     0   102 -2.2364400000e+01  2.5073143805e+01  1.5960914120e+01  3.7197965094e+01  3.3000000000e-01 0. 9.
       -3     1     4     0     0   103 -2.6156310237e+01 -1.2392391215e+01 -4.8675599394e+01  5.6632922418e+01  5.0000000000e-01 0. 9.
        4     1     4     0   103     0  5.8699791859e+00 -2.3962378496e+00  2.8759427883e+01  2.9488189222e+01  1.5000000000e+00 0. 9.
#pdf    1   -1  1.467472e-01  7.077281e-02  8.378659e+01  2.893781e-01  3.828768e-01
</event>
<event>
     8  9999  1.000000e+00  8.273801e+01  7.808903e-03  1.284276e-01
        2    -1     0     0   101     0  0.0000000000e+00  0.0000000000e+00  3.7982497123e+01  3.7982497123e+01  0.0000000000e+00 0. 9.
       -2    -1     0     0     0   101  0.0000000000e+00  0.0000000000e+00 -2.1162889404e+02  2.1162889404e+02  0.0000000000e+00 0. 9.
      -24     2     1     2     0     0 -1.5123467414e+01  1.4700899388e+01 -1.3467917053e+02  1.5793719148e+02  7.9754885535e+01 0. 9.
       24     2     1     2     0     0  1.5123467414e+01 -1.4700899388e+01 -3.8967226386e+01  9.1674199688e+01  8.0255083620e+01 0. 9.
        1     1     3     0   102     0 -4.2288523621e+01  1.8156461620e+01 -1.1597630668e+02  1.2477415172e+02  3.3000000000e-01 0. 9.
       -2     1     3     0     0   102  2.7165056208e+01 -3.4555622314e+00 -1.8702863857e+01  3.3163039752e+01  3.3000000000e-01 0. 9.
      -13     1     4     0     0     0 -8.1485430475e+00  2.8825025956e+01 -2.0246222990e+00  3.0023176625e+01  1.0566000000e-01  2.486481e+05 9.
       14     1     4     0     0     0  2.3272010461e+01 -4.3525925344e+01 -3.6942604087e+01  6.1651023063e+01  0.0000000000e+00 0. 9.
#pdf    2   -2  3.875765e-02  2.159479e-01  8.249653e+01  5.897376e-01  4.754343e-01
</event>
<event>
     8  9999  1.000000e+00  8.721739e+01  7.813567e-03  1.273752e-01
        2    -1     0     0   101     0  0.0000000000e+00  0.0000000000e+00  3.0507976914e+01  3.0507976914e+01  0.0000000000e+00 0. 9.
       -2    -1     0     0     0   101  0.0000000000e+00  0.0000000000e+00 -2.7532570596e+02  2.7532570596e+02  0.0000000000e+00 0. 9.
      -24     2     1     2     0     0  3.8210384371e+01  1.4439093516e+01 -1.6538461338e+02  1.8564763591e+02  7.3786539983e+01 0. 9.
       24     2     1     2     0     0 -3.8210384371e+01 -1.4439093516e+01 -7.9433115668e+01  1.2018604696e+02  8.0414831493e+01 0. 9.
        3     1     3     0   102     0  1.1734182734e+01 -2.8966306666e+01 -4.3410562937e+01  5.3492662496e+01  5.0000000000e-01 0. 9.
       -4     1     3     0     0   102  2.6476201637e+01  4.3405400182e+01 -1.2197405044e+02  1.3215497342e+02  1.5000000000e+00 0. 9.
      -13     1     4     0     0     0  7.7916466860e+00 -2.8808721109e+01 -6.2225381221e+01  6.9012038096e+01  1.0566000000e-01  1.082727e+05 9.
       14     1     4     0     0     0 -4.6002031057e+01  1.4369627593e+01 -1.7207734447e+01  5.1174008866e+01  0.0000000000e+00 0. 9.
#pdf    2   -2  3.113059e-02  2.809446e-01  8.433845e+01  6.002241e-01  3.879003e-01
</event>
<event>
     8  9999  1.000000e+00  1.069567e+02  7.831670e-03  1.234604e-01
        2    -1     0     0   101     0  0.0000000000e+00  0.0000000000e+00  4.2913472015e+01  4.2913472015e+01  0.0000000000e+00 0. 9.
       -2    -1     0     0     0   101  0.0000000000e+00  0.0000000000e+00 -3.2268934888e+02  3.2268934888e+02  0.0000000000e+00 0. 9.
      -24     2     1     2     0     0 -2.4189228541e+01 -6.5882497150e+01 -2.1686186130e+02  2.4211397621e+02  8.1636317771e+01 0. 9.
       24     2     1     2     0     0  2.4189228541e+01  6.5882497150e+01 -6.2914015562e+01  1.2348884469e+02  7.9785331985e+01 0. 9.
        3     1     3     0   102     0 -1.1801235988e+01  1.8531426037e+01 -5.2718015810e+01  5.7114990263e+01  5.0000000000e-01 0. 9.
       -4     1     3     0     0   102 -1.2387992553e+01 -8.4413923187e+01 -1.6414384549e+02  1.8499898594e+02  1.5000000000e+00 0. 9.
      -11     1     4     0     0     0 -2.7619284196e-01 -1.3657358353e+01 -3.1861833513e+01  3.4666643258e+01  5.1100000000e-04 0. 9.
       12     1     4     0     0     0  2.4465421383e+01  7.9539855502e+01 -3.1052182049e+01  8.8822201429e+01  0.0000000000e+00 0. 9.
#pdf    2   -2  4.378926e-02  3.292748e-01  1.062606e+02  5.870938e-01  3.124829e-01
</event>
</LesHouchesEvents>
